units           metal
boundary        p p p
atom_style      atomic
read_data      ../../data/T${T}.dat
read_data      ../../data/T460.dat
Reading data file ...
  orthogonal box = (-0.25122135 -0.25122135 -0.25122135) to (56.135714 56.135714 56.135714)
  3 by 4 by 4 MPI processor grid
  reading atoms ...
  9088 atoms
  reading velocities ...
  9088 velocities
  read_data CPU = 0.024 seconds
mass            1  26.98	#Al
mass            2  150.36	#Sm
pair_style      eam/fs
pair_coeff      * *  ../../Al90Sm10_MendelevM_2014.eam.fs  Al Sm

neighbor        2.0 bin
neigh_modify    delay 1

timestep 0.01
thermo 1000
reset_timestep 0
thermo_style custom step temp pe etotal press vol lx ly lz
fix             1 all nvt temp ${T} ${T} 0.1
fix             1 all nvt temp 460 ${T} 0.1
fix             1 all nvt temp 460 460 0.1
thermo_modify flush yes
fix nodrift all momentum 1  linear 1 1 1
fix com_seed all recenter INIT INIT INIT shift all
fix dsf all deform 1 x  wiggle 1.0  1000.0 y volume z volume units box
fix ps1 all ave/time 1 1 1000 c_thermo_press[1] c_thermo_press[2]  c_thermo_press[3] c_thermo_press[4]  c_thermo_press[5] c_thermo_press[6]  file  stress.${T}
fix ps1 all ave/time 1 1 1000 c_thermo_press[1] c_thermo_press[2]  c_thermo_press[3] c_thermo_press[4]  c_thermo_press[5] c_thermo_press[6]  file  stress.460
dump            1 all custom 100000 dump.${T} id type x y z
dump            1 all custom 100000 dump.460 id type x y z
dump_modify 1 sort id
run 1000000
Neighbor list info ...
  update every 1 steps, delay 1 steps, check yes
  max neighbors/atom: 2000, page size: 100000
  master list distance cutoff = 10
  ghost atom cutoff = 10
  binsize = 5, bins = 12 12 12
  1 neighbor lists, perpetual/occasional/extra = 1 0 0
  (1) pair eam/fs/intel, perpetual
      attributes: half, newton on, intel
      pair build: half/bin/newton/intel
      stencil: half/bin/3d/newton
      bin: intel
Per MPI rank memory allocation (min/avg/max) = 6.282 | 6.396 | 6.489 Mbytes
Step Temp PotEng TotEng Press Volume Lx Ly Lz 
       0    456.53395   -37733.859    -37197.62   -409.12538     179281.5    56.386935    56.386935    56.386935 
    1000    454.02731    -37708.54   -37175.245    258.09333     179281.5    56.449726    56.355566    56.355566 
    2000    459.17473   -37716.471    -37177.13    299.86736     179281.5    56.512269    56.324373    56.324373 
    3000    450.69262   -37711.649   -37182.271    418.96091     179281.5    56.574317    56.293478    56.293478 
    4000    460.69793   -37716.199   -37175.069     197.7407     179281.5    56.635625       56.263       56.263 
    5000    457.62815   -37708.439   -37170.915    525.38444     179281.5    56.695952    56.233059    56.233059 
    6000    458.40627    -37707.81   -37169.372    402.77364     179281.5     56.75506    56.203769    56.203769 
    7000    459.55263    -37696.59   -37156.806    843.40116     179281.5    56.812715    56.175244    56.175244 
    8000    462.12471   -37709.998   -37167.192    333.31565     179281.5    56.868689    56.147591    56.147591 
    9000    463.28681   -37713.681    -37169.51    252.12719     179281.5    56.922762    56.120916    56.120916 
   10000    459.63406   -37708.736   -37168.856    215.84633     179281.5    56.974721    56.095321    56.095321 
   11000     463.7682    -37708.21   -37163.474    564.66875     179281.5    57.024359      56.0709      56.0709 
   12000    459.77055   -37710.069   -37170.028    507.89567     179281.5    57.071482    56.047747    56.047747 
   13000    452.85923   -37702.604   -37170.682    506.19743     179281.5    57.115904    56.025947    56.025947 
   14000    460.86768   -37699.428   -37158.099    601.76447     179281.5    57.157449    56.005583    56.005583 
   15000    463.80985   -37708.099   -37163.315    434.91398     179281.5    57.195952    55.986728    55.986728 
   16000    456.77659   -37702.738   -37166.214    779.53552     179281.5    57.231263    55.969454    55.969454 
   17000     458.2826   -37703.443    -37165.15    758.12197     179281.5    57.263242    55.953824    55.953824 
   18000     456.0169   -37708.472   -37172.841     345.5034     179281.5    57.291762    55.939895    55.939895 
   19000    461.05499   -37701.965   -37160.416    688.83357     179281.5    57.316712    55.927718    55.927718 
   20000    463.56391   -37706.731   -37162.235    529.79006     179281.5    57.337992    55.917339    55.917339 
   21000    462.05042   -37691.094   -37148.375    813.92208     179281.5    57.355518    55.908795    55.908795 
   22000    450.29121   -37704.846    -37175.94    716.81255     179281.5    57.369223    55.902117    55.902117 
   23000    454.03683   -37708.789   -37175.484    379.44637     179281.5     57.37905    55.897329    55.897329 
   24000    463.57784    -37697.81   -37153.297    737.06239     179281.5    57.384962     55.89445     55.89445 
   25000    462.20985   -37696.295   -37153.389    819.24943     179281.5    57.386935    55.893489    55.893489 
   26000    462.82279   -37704.254   -37160.628    648.40998     179281.5    57.384962     55.89445     55.89445 
   27000    463.94021   -37699.104   -37154.165    665.07696     179281.5     57.37905    55.897329    55.897329 
   28000    460.94651   -37695.639   -37154.217    507.34994     179281.5    57.369223    55.902117    55.902117 
   29000    465.70901   -37704.547   -37157.531    411.69536     179281.5    57.355518    55.908795    55.908795 
   30000    456.17391   -37699.191   -37163.375    816.65638     179281.5    57.337992    55.917339    55.917339 
   31000    458.83571    -37710.07   -37171.127    393.19018     179281.5    57.316712    55.927718    55.927718 
   32000     457.1178   -37707.152   -37170.227     460.0182     179281.5    57.291762    55.939895    55.939895 
   33000    462.14181   -37697.614   -37154.788      760.488     179281.5    57.263242    55.953824    55.953824 
   34000    466.90182   -37708.916   -37160.499    652.18414     179281.5    57.231263    55.969454    55.969454 
   35000    462.80384   -37702.282   -37158.678    542.31904     179281.5    57.195952    55.986728    55.986728 
   36000    458.94276   -37709.341   -37170.273    637.52327     179281.5    57.157449    56.005583    56.005583 
   37000    452.67667   -37711.573   -37179.865    317.58161     179281.5    57.115904    56.025947    56.025947 
   38000    462.59294   -37709.895    -37166.54    376.01107     179281.5    57.071482    56.047747    56.047747 
   39000    459.63368   -37701.701   -37161.822    607.98836     179281.5    57.024359      56.0709      56.0709 
   40000    453.84944   -37709.767   -37176.682    611.48939     179281.5    56.974721    56.095321    56.095321 
   41000    461.36651   -37698.313   -37156.398    494.93241     179281.5    56.922762    56.120916    56.120916 
   42000    457.20998   -37719.039   -37182.006    139.49054     179281.5    56.868689    56.147591    56.147591 
   43000    463.64878   -37708.519   -37163.924    480.42869     179281.5    56.812715    56.175244    56.175244 
   44000    463.14281   -37711.219   -37167.217    354.55845     179281.5     56.75506    56.203769    56.203769 
   45000    462.95203   -37703.733   -37159.956    588.81412     179281.5    56.695952    56.233059    56.233059 
   46000    455.64113   -37717.051   -37181.861    116.98531     179281.5    56.635625       56.263       56.263 
   47000    462.83184   -37718.279   -37174.643    491.10995     179281.5    56.574317    56.293478    56.293478 
   48000    459.07384   -37704.597   -37165.375    411.24137     179281.5    56.512269    56.324373    56.324373 
   49000    465.82334   -37714.953   -37167.803    196.09931     179281.5    56.449726    56.355566    56.355566 
   50000    464.25215   -37714.526   -37169.222    391.46288     179281.5    56.386935    56.386935    56.386935 
   51000    462.37654   -37707.504   -37164.402    688.40424     179281.5    56.324145    56.418357    56.418357 
   52000    457.00579   -37713.438   -37176.645    384.30664     179281.5    56.261602    56.449707    56.449707 
   53000    451.71973   -37723.996   -37193.412    249.94425     179281.5    56.199554     56.48086     56.48086 
   54000    458.65559   -37708.919   -37170.188    501.89683     179281.5    56.138245    56.511693    56.511693 
   55000    460.59614   -37703.213   -37162.203    647.45334     179281.5    56.077918    56.542082    56.542082 
   56000    455.77012   -37707.676   -37172.335     468.2506     179281.5    56.018811    56.571904    56.571904 
   57000     462.9366   -37716.967   -37173.208    405.19871     179281.5    55.961156    56.601038    56.601038 
   58000    458.51091    -37704.66   -37166.099    465.07418     179281.5    55.905182    56.629367    56.629367 
   59000    453.14219   -37703.691   -37171.436    718.70671     179281.5    55.851109    56.656773    56.656773 
   60000     462.1424   -37707.041   -37164.215    527.54399     179281.5     55.79915    56.683146    56.683146 
   61000    456.97903   -37705.692   -37168.931    503.49552     179281.5    55.749511    56.708375    56.708375 
   62000      460.694   -37705.599   -37164.474    614.33812     179281.5    55.702388    56.732357    56.732357 
   63000    461.97577   -37702.557   -37159.926    747.52933     179281.5    55.657967    56.754992    56.754992 
   64000    462.50507   -37697.776   -37154.523    903.25083     179281.5    55.616422    56.776186    56.776186 
   65000    456.88678   -37704.746   -37168.093    407.02159     179281.5    55.577918    56.795849    56.795849 
   66000    461.32034   -37700.375   -37158.514     878.5137     179281.5    55.542607      56.8139      56.8139 
   67000    467.62266   -37695.179   -37145.916    694.21614     179281.5    55.510629    56.830263    56.830263 
   68000    466.76214   -37705.734   -37157.481    845.79431     179281.5    55.482108    56.844868    56.844868 
   69000    461.20756   -37700.313   -37158.585    675.75437     179281.5    55.457159    56.857653    56.857653 
   70000    462.64757    -37701.33    -37157.91    568.79154     179281.5    55.435879    56.868565    56.868565 
   71000    460.61891   -37702.941   -37161.904    593.44862     179281.5    55.418352    56.877557    56.877557 
   72000    455.20605   -37703.658   -37168.979    792.76207     179281.5    55.404648    56.884591    56.884591 
   73000    462.44084   -37697.695   -37154.518    811.04918     179281.5    55.394821    56.889636    56.889636 
   74000    454.12572   -37707.062   -37173.652    502.31743     179281.5    55.388909    56.892672    56.892672 
   75000     464.8458   -37695.637   -37149.636    857.26798     179281.5    55.386935    56.893686    56.893686 
   76000    459.81795   -37705.256   -37165.159    635.46364     179281.5    55.388909    56.892672    56.892672 
   77000    461.11911   -37707.864   -37166.239    516.15266     179281.5    55.394821    56.889636    56.889636 
   78000    461.66103   -37696.716   -37154.455    907.68552     179281.5    55.404648    56.884591    56.884591 
   79000    458.69749   -37703.675   -37164.895    421.98667     179281.5    55.418352    56.877557    56.877557 
   80000    460.91229    -37697.75   -37156.368     950.1475     179281.5    55.435879    56.868565    56.868565 
   81000    454.32228   -37699.203   -37165.562    574.97196     179281.5    55.457159    56.857653    56.857653 
   82000    456.28981   -37699.238   -37163.286     573.7927     179281.5    55.482108    56.844868    56.844868 
   83000    466.03078   -37709.315   -37161.922    326.05447     179281.5    55.510629    56.830263    56.830263 
   84000      466.286   -37705.874    -37158.18    464.28374     179281.5    55.542607      56.8139      56.8139 
   85000    459.39777   -37705.137   -37165.534    465.39318     179281.5    55.577918    56.795849    56.795849 
   86000    455.11411    -37703.77   -37169.199    598.07595     179281.5    55.616422    56.776186    56.776186 
   87000    456.00621   -37707.856   -37172.237    582.39503     179281.5    55.657967    56.754992    56.754992 
   88000     456.2844    -37707.88   -37171.935    462.28424     179281.5    55.702388    56.732357    56.732357 
   89000    454.45094   -37708.723    -37174.93     216.8817     179281.5    55.749511    56.708375    56.708375 
   90000    468.97449    -37714.23   -37163.379    197.10973     179281.5     55.79915    56.683146    56.683146 
   91000    460.52213   -37711.934   -37171.011    311.43464     179281.5    55.851109    56.656773    56.656773 
   92000    461.02381   -37702.419   -37160.906    420.50419     179281.5    55.905182    56.629367    56.629367 
   93000    460.46133   -37709.066   -37168.214    345.84459     179281.5    55.961156    56.601038    56.601038 
   94000     459.9781   -37707.458   -37167.173    429.92293     179281.5    56.018811    56.571904    56.571904 
   95000    453.04747   -37711.935   -37179.791    302.95248     179281.5    56.077918    56.542082    56.542082 
   96000     461.9803   -37710.011   -37167.375    424.59522     179281.5    56.138245    56.511693    56.511693 
   97000    459.49547   -37710.128    -37170.41    657.82401     179281.5    56.199554     56.48086     56.48086 
   98000    459.21769   -37707.866   -37168.475    611.88133     179281.5    56.261602    56.449707    56.449707 
   99000    454.55494   -37723.013   -37189.099    166.49805     179281.5    56.324145    56.418357    56.418357 
  100000    468.53605   -37714.404   -37164.068    329.89794     179281.5    56.386935    56.386935    56.386935 
  101000    463.38058   -37713.791   -37169.511    429.07235     179281.5    56.449726    56.355566    56.355566 
  102000    452.06332   -37710.744   -37179.756     201.5039     179281.5    56.512269    56.324373    56.324373 
  103000     459.2552   -37713.822   -37174.386    255.79984     179281.5    56.574317    56.293478    56.293478 
  104000    460.96573   -37704.252   -37162.807    659.91356     179281.5    56.635625       56.263       56.263 
  105000    458.06049   -37709.934   -37171.902     238.7477     179281.5    56.695952    56.233059    56.233059 
  106000     458.5925   -37707.312   -37168.656    503.51244     179281.5     56.75506    56.203769    56.203769 
  107000    459.11447   -37709.091   -37169.821    295.92011     179281.5    56.812715    56.175244    56.175244 
  108000    463.15057   -37708.999   -37164.988    462.87483     179281.5    56.868689    56.147591    56.147591 
  109000    466.34707   -37707.752   -37159.986    496.41183     179281.5    56.922762    56.120916    56.120916 
  110000    463.16831   -37712.706   -37168.674    163.78237     179281.5    56.974721    56.095321    56.095321 
  111000    458.83689   -37707.043   -37168.099    392.53868     179281.5    57.024359      56.0709      56.0709 
  112000    452.13753   -37707.191   -37176.116    359.74848     179281.5    57.071482    56.047747    56.047747 
  113000    457.05002   -37706.252   -37169.407    402.11401     179281.5    57.115904    56.025947    56.025947 
  114000    461.23563   -37704.419   -37162.657    695.70831     179281.5    57.157449    56.005583    56.005583 
  115000    455.37081   -37707.225   -37172.352    599.51915     179281.5    57.195952    55.986728    55.986728 
  116000    461.73239   -37700.042   -37157.697    397.28063     179281.5    57.231263    55.969454    55.969454 
  117000    455.46509   -37708.618   -37173.634    343.05425     179281.5    57.263242    55.953824    55.953824 
  118000    461.98296   -37702.531   -37159.892    806.44232     179281.5    57.291762    55.939895    55.939895 
  119000    463.71042    -37700.63   -37155.961    409.00858     179281.5    57.316712    55.927718    55.927718 
  120000    461.55389    -37698.18   -37156.045    734.31152     179281.5    57.337992    55.917339    55.917339 
  121000    462.33484   -37695.854   -37152.802    736.89938     179281.5    57.355518    55.908795    55.908795 
  122000    463.28343   -37699.225   -37155.058    756.93574     179281.5    57.369223    55.902117    55.902117 
  123000    455.29034   -37703.084   -37168.306    411.20387     179281.5     57.37905    55.897329    55.897329 
  124000    457.64597   -37699.257   -37161.712    524.84413     179281.5    57.384962     55.89445     55.89445 
  125000    457.38478   -37702.649    -37165.41    603.95873     179281.5    57.386935    55.893489    55.893489 
  126000    458.49426   -37695.605   -37157.063    539.55373     179281.5    57.384962     55.89445     55.89445 
  127000    460.56829   -37701.229   -37160.252    175.24551     179281.5     57.37905    55.897329    55.897329 
  128000     459.4354   -37709.105   -37169.458    411.42139     179281.5    57.369223    55.902117    55.902117 
  129000    460.88118   -37707.034   -37165.689    506.09686     179281.5    57.355518    55.908795    55.908795 
  130000    460.25609   -37702.744   -37162.133    450.05422     179281.5    57.337992    55.917339    55.917339 
  131000    459.48283   -37698.215   -37158.512    805.34118     179281.5    57.316712    55.927718    55.927718 
  132000    456.18023   -37699.209   -37163.385    637.22741     179281.5    57.291762    55.939895    55.939895 
  133000    454.81379   -37700.833   -37166.614    679.56305     179281.5    57.263242    55.953824    55.953824 
  134000    459.90832   -37702.098   -37161.896    438.59811     179281.5    57.231263    55.969454    55.969454 
  135000    460.42373   -37703.879   -37163.071    442.87366     179281.5    57.195952    55.986728    55.986728 
  136000    461.90499   -37701.932   -37159.385    600.55058     179281.5    57.157449    56.005583    56.005583 
  137000    461.20616   -37706.299   -37164.572     457.5853     179281.5    57.115904    56.025947    56.025947 
  138000    462.79801   -37706.619   -37163.023    691.53223     179281.5    57.071482    56.047747    56.047747 
  139000    459.20979   -37711.239   -37171.857    410.42563     179281.5    57.024359      56.0709      56.0709 
  140000    457.94857   -37709.954   -37172.054    299.62825     179281.5    56.974721    56.095321    56.095321 
  141000    461.48404   -37707.112   -37165.059    506.87789     179281.5    56.922762    56.120916    56.120916 
  142000    460.45778   -37708.395   -37167.548    520.85989     179281.5    56.868689    56.147591    56.147591 
  143000    454.04856   -37713.272   -37179.952    146.85377     179281.5    56.812715    56.175244    56.175244 
  144000     454.4166   -37710.127   -37176.375    530.08174     179281.5     56.75506    56.203769    56.203769 
  145000    455.07183   -37706.364   -37171.843    427.27016     179281.5    56.695952    56.233059    56.233059 
  146000    460.48672   -37718.538   -37177.656    455.57219     179281.5    56.635625       56.263       56.263 
  147000    456.78142   -37704.588   -37168.059    520.66165     179281.5    56.574317    56.293478    56.293478 
  148000    458.01993    -37710.79   -37172.806    240.62722     179281.5    56.512269    56.324373    56.324373 
  149000    453.85684   -37711.223   -37178.128    330.91964     179281.5    56.449726    56.355566    56.355566 
  150000    457.55916   -37718.135   -37180.692    251.35308     179281.5    56.386935    56.386935    56.386935 
  151000    456.75043   -37706.326   -37169.833     703.5539     179281.5    56.324145    56.418357    56.418357 
  152000    465.06026   -37719.808   -37173.555    559.40702     179281.5    56.261602    56.449707    56.449707 
  153000    459.49244   -37714.087   -37174.374    425.63801     179281.5    56.199554     56.48086     56.48086 
  154000    456.93056   -37716.735    -37180.03    213.61506     179281.5    56.138245    56.511693    56.511693 
  155000    463.86711   -37712.544   -37167.692    567.78985     179281.5    56.077918    56.542082    56.542082 
  156000    461.79858   -37706.338   -37163.915    573.51555     179281.5    56.018811    56.571904    56.571904 
  157000    455.52466   -37709.739   -37174.685    511.10431     179281.5    55.961156    56.601038    56.601038 
  158000    462.63846   -37709.375   -37165.966    496.83952     179281.5    55.905182    56.629367    56.629367 
  159000    458.29172   -37708.695   -37170.392    617.42321     179281.5    55.851109    56.656773    56.656773 
  160000    463.43743   -37702.835   -37158.487    446.64366     179281.5     55.79915    56.683146    56.683146 
  161000    461.54981   -37705.854   -37163.724    551.87242     179281.5    55.749511    56.708375    56.708375 
  162000    457.75446   -37706.822    -37169.15     612.1656     179281.5    55.702388    56.732357    56.732357 
  163000    462.44575   -37710.475   -37167.292    271.20987     179281.5    55.657967    56.754992    56.754992 
  164000    462.76331   -37705.585   -37162.029    826.66349     179281.5    55.616422    56.776186    56.776186 
  165000    462.79616   -37700.074   -37156.479    783.20227     179281.5    55.577918    56.795849    56.795849 
  166000    460.71083   -37705.466   -37164.321    502.31833     179281.5    55.542607      56.8139      56.8139 
  167000    455.59663   -37693.769   -37158.631    627.78532     179281.5    55.510629    56.830263    56.830263 
  168000     463.1465   -37694.157   -37150.152    928.83699     179281.5    55.482108    56.844868    56.844868 
  169000    462.60694    -37707.22   -37163.848    509.96164     179281.5    55.457159    56.857653    56.857653 
  170000    458.34969    -37700.89   -37162.519    622.61674     179281.5    55.435879    56.868565    56.868565 
  171000    461.11783   -37689.357   -37147.734    991.74012     179281.5    55.418352    56.877557    56.877557 
  172000    466.06275    -37698.95   -37151.519     998.6011     179281.5    55.404648    56.884591    56.884591 
  173000    460.80365   -37705.505   -37164.252    546.76946     179281.5    55.394821    56.889636    56.889636 
  174000    462.91384   -37695.839   -37152.106    792.76797     179281.5    55.388909    56.892672    56.892672 
  175000    454.62966   -37692.117   -37158.115    765.74814     179281.5    55.386935    56.893686    56.893686 
  176000    467.22787   -37699.471   -37150.671    807.10369     179281.5    55.388909    56.892672    56.892672 
  177000    456.87001   -37703.077   -37166.444     538.9243     179281.5    55.394821    56.889636    56.889636 
  178000     455.0241   -37699.467   -37165.001    617.09393     179281.5    55.404648    56.884591    56.884591 
  179000     459.6362   -37701.128   -37161.245    604.39231     179281.5    55.418352    56.877557    56.877557 
  180000    462.77499   -37696.925   -37153.355    790.13298     179281.5    55.435879    56.868565    56.868565 
  181000    461.45218   -37702.548   -37160.532    634.66186     179281.5    55.457159    56.857653    56.857653 
  182000    466.09826   -37707.924   -37160.451    331.73307     179281.5    55.482108    56.844868    56.844868 
  183000    456.23797   -37712.274   -37176.383    372.00219     179281.5    55.510629    56.830263    56.830263 
  184000    459.47478   -37711.852   -37172.158    251.90691     179281.5    55.542607      56.8139      56.8139 
  185000    460.46786   -37708.554   -37167.694    223.34471     179281.5    55.577918    56.795849    56.795849 
  186000    458.73075   -37697.387   -37158.568    681.48913     179281.5    55.616422    56.776186    56.776186 
  187000    463.69686   -37703.632   -37158.979    825.39527     179281.5    55.657967    56.754992    56.754992 
  188000    458.90483   -37704.615   -37165.591    538.59395     179281.5    55.702388    56.732357    56.732357 
  189000    462.34794   -37704.663   -37161.596    658.42527     179281.5    55.749511    56.708375    56.708375 
  190000    454.35862   -37703.326   -37169.642    507.26037     179281.5     55.79915    56.683146    56.683146 
  191000    462.98109   -37713.464   -37169.652    259.64746     179281.5    55.851109    56.656773    56.656773 
  192000    465.92569   -37700.244   -37152.974    683.91063     179281.5    55.905182    56.629367    56.629367 
  193000    454.43971   -37703.877   -37170.098    750.46428     179281.5    55.961156    56.601038    56.601038 
  194000    460.46534   -37721.389   -37180.532    157.95114     179281.5    56.018811    56.571904    56.571904 
  195000      464.873   -37714.004    -37167.97    544.98793     179281.5    56.077918    56.542082    56.542082 
  196000    456.47728   -37707.032   -37170.859    603.11472     179281.5    56.138245    56.511693    56.511693 
  197000    462.79028   -37708.325   -37164.737    686.05535     179281.5    56.199554     56.48086     56.48086 
  198000    460.89351    -37714.29    -37172.93     144.4234     179281.5    56.261602    56.449707    56.449707 
  199000    461.00946    -37709.12   -37167.624    472.92949     179281.5    56.324145    56.418357    56.418357 
  200000    461.96791   -37712.781   -37170.159    342.87566     179281.5    56.386935    56.386935    56.386935 
  201000     463.3932   -37716.418   -37172.122    348.84608     179281.5    56.449726    56.355566    56.355566 
  202000    461.24543   -37715.169   -37173.396    377.06292     179281.5    56.512269    56.324373    56.324373 
  203000    456.23183   -37706.358   -37170.474    500.52193     179281.5    56.574317    56.293478    56.293478 
  204000     459.9237    -37706.14    -37165.92    380.17296     179281.5    56.635625       56.263       56.263 
  205000     452.8445    -37711.38   -37179.475    241.83764     179281.5    56.695952    56.233059    56.233059 
  206000    467.74227   -37712.048   -37162.644    449.89359     179281.5     56.75506    56.203769    56.203769 
  207000     462.4259   -37704.612   -37161.453    572.58435     179281.5    56.812715    56.175244    56.175244 
  208000    460.44236    -37709.64   -37168.811     344.0415     179281.5    56.868689    56.147591    56.147591 
  209000    463.82228   -37698.689    -37153.89    701.06915     179281.5    56.922762    56.120916    56.120916 
  210000    460.04197    -37701.93   -37161.571     591.2391     179281.5    56.974721    56.095321    56.095321 
  211000    456.92982   -37709.962   -37173.258     311.6745     179281.5    57.024359      56.0709      56.0709 
  212000    464.33368   -37710.405   -37165.005    337.80761     179281.5    57.071482    56.047747    56.047747 
  213000    459.45772   -37715.475   -37175.802    385.07218     179281.5    57.115904    56.025947    56.025947 
  214000     462.5709   -37713.306   -37169.977    372.23123     179281.5    57.157449    56.005583    56.005583 
  215000    460.85996   -37708.696   -37167.376    462.36675     179281.5    57.195952    55.986728    55.986728 
  216000    457.98709   -37710.198   -37172.253    288.98002     179281.5    57.231263    55.969454    55.969454 
  217000    462.22042    -37698.09   -37155.172    618.56113     179281.5    57.263242    55.953824    55.953824 
  218000    461.22243   -37708.141   -37166.395    475.09729     179281.5    57.291762    55.939895    55.939895 
  219000    464.21316   -37702.985   -37157.727    852.24918     179281.5    57.316712    55.927718    55.927718 
  220000    466.05699   -37712.573   -37165.149    538.33789     179281.5    57.337992    55.917339    55.917339 
  221000    461.95219   -37698.178   -37155.575    839.79349     179281.5    57.355518    55.908795    55.908795 
  222000    457.00732    -37697.59   -37160.795    786.75053     179281.5    57.369223    55.902117    55.902117 
  223000    462.78638   -37703.376   -37159.793    662.82224     179281.5     57.37905    55.897329    55.897329 
  224000    463.66831   -37708.131   -37163.513     484.1131     179281.5    57.384962     55.89445     55.89445 
  225000    461.42095   -37708.868   -37166.889    626.01229     179281.5    57.386935    55.893489    55.893489 
  226000    462.38192   -37711.547   -37168.439    395.62228     179281.5    57.384962     55.89445     55.89445 
  227000    463.11368   -37700.205   -37156.238    794.64405     179281.5     57.37905    55.897329    55.897329 
  228000    460.18023   -37710.952    -37170.43    464.05615     179281.5    57.369223    55.902117    55.902117 
  229000    460.30257   -37698.156    -37157.49     645.9453     179281.5    57.355518    55.908795    55.908795 
  230000    454.39217   -37701.261   -37167.538    661.60144     179281.5    57.337992    55.917339    55.917339 
  231000    458.38317   -37703.964   -37165.553     597.7918     179281.5    57.316712    55.927718    55.927718 
  232000    457.31843   -37709.036   -37171.876    472.12561     179281.5    57.291762    55.939895    55.939895 
  233000    456.79175   -37702.687   -37166.146    770.08818     179281.5    57.263242    55.953824    55.953824 
  234000    464.04662   -37707.266   -37162.202    454.27517     179281.5    57.231263    55.969454    55.969454 
  235000    461.00827   -37705.854    -37164.36    501.68385     179281.5    57.195952    55.986728    55.986728 
  236000     456.8193   -37701.944    -37165.37    784.55695     179281.5    57.157449    56.005583    56.005583 
  237000    459.37066   -37702.923   -37163.352     704.5384     179281.5    57.115904    56.025947    56.025947 
  238000    460.17397   -37712.935    -37172.42    396.13309     179281.5    57.071482    56.047747    56.047747 
  239000    457.55354   -37706.975   -37169.538    545.15214     179281.5    57.024359      56.0709      56.0709 
  240000    459.13009   -37707.608    -37168.32    510.39939     179281.5    56.974721    56.095321    56.095321 
  241000    458.50435   -37706.333    -37167.78    429.21435     179281.5    56.922762    56.120916    56.120916 
  242000    464.94254   -37706.752   -37160.636    507.51005     179281.5    56.868689    56.147591    56.147591 
  243000    458.64807   -37709.693   -37170.971    384.35433     179281.5    56.812715    56.175244    56.175244 
  244000    458.51866   -37705.798   -37167.228    506.70069     179281.5     56.75506    56.203769    56.203769 
  245000    452.87578   -37706.838   -37174.896    516.01524     179281.5    56.695952    56.233059    56.233059 
  246000    464.22108   -37717.003   -37171.735    356.19341     179281.5    56.635625       56.263       56.263 
  247000    462.79654   -37710.658   -37167.064     479.3332     179281.5    56.574317    56.293478    56.293478 
  248000    456.38411   -37705.846   -37169.784    690.43569     179281.5    56.512269    56.324373    56.324373 
  249000    461.02624    -37707.44   -37165.924    535.71333     179281.5    56.449726    56.355566    56.355566 
  250000    454.53603    -37705.38   -37171.488    603.34673     179281.5    56.386935    56.386935    56.386935 
  251000    461.84995   -37716.703    -37174.22    209.79645     179281.5    56.324145    56.418357    56.418357 
  252000    452.00624   -37707.733   -37176.813    549.62672     179281.5    56.261602    56.449707    56.449707 
  253000     463.3905   -37707.709   -37163.417    369.41848     179281.5    56.199554     56.48086     56.48086 
  254000    456.76958   -37713.901   -37177.385    291.66267     179281.5    56.138245    56.511693    56.511693 
  255000    459.39213   -37717.672   -37178.076    133.87682     179281.5    56.077918    56.542082    56.542082 
  256000    449.87518   -37707.441   -37179.023    526.29931     179281.5    56.018811    56.571904    56.571904 
  257000      460.055   -37710.855   -37170.481    299.72617     179281.5    55.961156    56.601038    56.601038 
  258000    455.75369   -37715.532    -37180.21    293.17716     179281.5    55.905182    56.629367    56.629367 
  259000    454.19763   -37704.574    -37171.08     319.6723     179281.5    55.851109    56.656773    56.656773 
  260000    462.30409   -37708.878   -37165.862    608.78399     179281.5     55.79915    56.683146    56.683146 
  261000    459.68034   -37710.004   -37170.069    392.10828     179281.5    55.749511    56.708375    56.708375 
  262000    458.19484   -37700.453   -37162.263    597.15983     179281.5    55.702388    56.732357    56.732357 
  263000    453.61652   -37704.979   -37172.167    570.22235     179281.5    55.657967    56.754992    56.754992 
  264000    460.86627   -37697.067    -37155.74    644.61096     179281.5    55.616422    56.776186    56.776186 
  265000     463.6817   -37701.023   -37156.389    556.94682     179281.5    55.577918    56.795849    56.795849 
  266000    462.58068   -37701.102   -37157.761    838.32851     179281.5    55.542607      56.8139      56.8139 
  267000    460.09981   -37707.875   -37167.448    454.65403     179281.5    55.510629    56.830263    56.830263 
  268000    456.00838   -37694.846   -37159.225    720.81309     179281.5    55.482108    56.844868    56.844868 
  269000    459.91039   -37703.167   -37162.962    766.32616     179281.5    55.457159    56.857653    56.857653 
  270000    458.26803   -37700.859   -37162.584    587.70778     179281.5    55.435879    56.868565    56.868565 
  271000     457.8436   -37699.307    -37161.53    769.84453     179281.5    55.418352    56.877557    56.877557 
  272000    462.45591   -37699.274   -37156.079    547.84957     179281.5    55.404648    56.884591    56.884591 
  273000    463.22095   -37692.872   -37148.779     1115.121     179281.5    55.394821    56.889636    56.889636 
  274000    459.54111   -37701.165   -37161.394    602.19861     179281.5    55.388909    56.892672    56.892672 
  275000     465.8199   -37699.438   -37152.292    759.93796     179281.5    55.386935    56.893686    56.893686 
  276000    460.29503    -37697.05   -37156.393      737.005     179281.5    55.388909    56.892672    56.892672 
  277000    461.12857   -37692.026   -37150.391    901.07599     179281.5    55.394821    56.889636    56.889636 
  278000     465.6981   -37699.577   -37152.574    578.62256     179281.5    55.404648    56.884591    56.884591 
  279000    459.34338   -37694.722   -37155.183    959.96086     179281.5    55.418352    56.877557    56.877557 
  280000    461.58652   -37701.054   -37158.881    581.98678     179281.5    55.435879    56.868565    56.868565 
  281000      456.553   -37702.012   -37165.751      576.238     179281.5    55.457159    56.857653    56.857653 
  282000    461.78211    -37697.24   -37154.837    758.47521     179281.5    55.482108    56.844868    56.844868 
  283000    459.18261    -37707.16    -37167.81    606.93221     179281.5    55.510629    56.830263    56.830263 
  284000    461.17405   -37702.836   -37161.147    497.10366     179281.5    55.542607      56.8139      56.8139 
  285000     461.6737   -37700.968   -37158.692    576.97648     179281.5    55.577918    56.795849    56.795849 
  286000      457.771    -37701.41   -37163.718    684.76544     179281.5    55.616422    56.776186    56.776186 
  287000    459.63208   -37703.263   -37163.385    585.54406     179281.5    55.657967    56.754992    56.754992 
  288000    460.44506    -37700.76   -37159.927    662.40058     179281.5    55.702388    56.732357    56.732357 
  289000    468.28828   -37705.391   -37155.346    587.67573     179281.5    55.749511    56.708375    56.708375 
  290000    465.45978   -37710.672   -37163.949    438.47437     179281.5     55.79915    56.683146    56.683146 
  291000    464.74317   -37704.817   -37158.936     631.9594     179281.5    55.851109    56.656773    56.656773 
  292000    458.22599   -37709.827     -37171.6    500.59204     179281.5    55.905182    56.629367    56.629367 
  293000    460.33327    -37708.23   -37167.528     522.8584     179281.5    55.961156    56.601038    56.601038 
  294000    457.55838   -37709.133    -37171.69     385.9567     179281.5    56.018811    56.571904    56.571904 
  295000    463.21127   -37705.926   -37161.844    405.96529     179281.5    56.077918    56.542082    56.542082 
  296000    463.28056   -37715.086   -37170.922    492.97868     179281.5    56.138245    56.511693    56.511693 
  297000    463.37022   -37704.057   -37159.788    578.42671     179281.5    56.199554     56.48086     56.48086 
  298000    461.63068   -37720.971   -37178.746     139.9798     179281.5    56.261602    56.449707    56.449707 
  299000    454.11162   -37704.991   -37171.598     504.2356     179281.5    56.324145    56.418357    56.418357 
  300000    463.86782   -37715.398   -37170.544    314.38474     179281.5    56.386935    56.386935    56.386935 
  301000    459.04353   -37707.275   -37168.089    360.96573     179281.5    56.449726    56.355566    56.355566 
  302000    470.33844   -37708.948   -37156.494    483.37592     179281.5    56.512269    56.324373    56.324373 
  303000    453.11335    -37715.74   -37183.519    81.781986     179281.5    56.574317    56.293478    56.293478 
  304000    460.69568   -37711.259   -37170.131    408.99983     179281.5    56.635625       56.263       56.263 
  305000    462.61814   -37719.176   -37175.791    219.59542     179281.5    56.695952    56.233059    56.233059 
  306000     466.7603   -37706.376   -37158.126    728.60967     179281.5     56.75506    56.203769    56.203769 
  307000    465.62849   -37716.261    -37169.34     458.1709     179281.5    56.812715    56.175244    56.175244 
  308000    464.32005   -37709.336   -37163.952    566.72743     179281.5    56.868689    56.147591    56.147591 
  309000    459.67758    -37713.46   -37173.528    316.84109     179281.5    56.922762    56.120916    56.120916 
  310000    461.79123    -37713.41   -37170.996    338.62103     179281.5    56.974721    56.095321    56.095321 
  311000    468.09326   -37706.405   -37156.589    500.21336     179281.5    57.024359      56.0709      56.0709 
  312000    457.40558   -37714.442   -37177.179    405.12947     179281.5    57.071482    56.047747    56.047747 
  313000    454.45542   -37703.728   -37169.931    624.28716     179281.5    57.115904    56.025947    56.025947 
  314000    460.77135   -37700.284   -37159.068    812.84832     179281.5    57.157449    56.005583    56.005583 
  315000    457.10735   -37704.907   -37167.995     491.7675     179281.5    57.195952    55.986728    55.986728 
  316000    452.29476   -37707.571   -37176.311    419.96587     179281.5    57.231263    55.969454    55.969454 
  317000    458.40057   -37701.712   -37163.281    665.24633     179281.5    57.263242    55.953824    55.953824 
  318000    455.17072   -37706.037   -37171.399    571.05542     179281.5    57.291762    55.939895    55.939895 
  319000    457.24757   -37705.627    -37168.55    441.51459     179281.5    57.316712    55.927718    55.927718 
  320000    460.33265   -37701.724   -37161.023    393.62255     179281.5    57.337992    55.917339    55.917339 
  321000    457.37916   -37696.263   -37159.032     843.8466     179281.5    57.355518    55.908795    55.908795 
  322000    463.67013   -37702.828   -37158.207    636.91088     179281.5    57.369223    55.902117    55.902117 
  323000    453.62959   -37701.171   -37168.344    857.03738     179281.5     57.37905    55.897329    55.897329 
  324000    452.96185   -37699.679   -37167.636    451.22588     179281.5    57.384962     55.89445     55.89445 
  325000    452.19184    -37700.35   -37169.211    498.11087     179281.5    57.386935    55.893489    55.893489 
  326000    461.49167   -37708.388   -37166.326     850.7475     179281.5    57.384962     55.89445     55.89445 
  327000    455.32267   -37695.876    -37161.06    644.65046     179281.5     57.37905    55.897329    55.897329 
  328000    460.25774   -37714.108   -37173.495    417.30201     179281.5    57.369223    55.902117    55.902117 
  329000      462.954   -37701.613   -37157.833    714.48846     179281.5    57.355518    55.908795    55.908795 
  330000    461.39756   -37707.371   -37165.419    607.33403     179281.5    57.337992    55.917339    55.917339 
  331000    455.89718   -37706.131    -37170.64    660.87115     179281.5    57.316712    55.927718    55.927718 
  332000    456.84411   -37697.255   -37160.652    532.78172     179281.5    57.291762    55.939895    55.939895 
  333000     453.7513   -37702.055   -37169.085    400.26989     179281.5    57.263242    55.953824    55.953824 
  334000    459.59287   -37702.216   -37162.384    297.49669     179281.5    57.231263    55.969454    55.969454 
  335000    456.18491   -37702.279    -37166.45    547.25781     179281.5    57.195952    55.986728    55.986728 
  336000    457.36963   -37698.701    -37161.48    733.01867     179281.5    57.157449    56.005583    56.005583 
  337000    454.29132     -37705.7   -37172.096    382.55887     179281.5    57.115904    56.025947    56.025947 
  338000    455.95352   -37699.977    -37164.42    331.59338     179281.5    57.071482    56.047747    56.047747 
  339000    462.83246   -37711.609   -37167.972    737.17823     179281.5    57.024359      56.0709      56.0709 
  340000    461.10761   -37700.484   -37158.874    604.23027     179281.5    56.974721    56.095321    56.095321 
  341000    457.85061   -37713.785       -37176    385.96954     179281.5    56.922762    56.120916    56.120916 
  342000    463.45425   -37714.564   -37170.196    250.22813     179281.5    56.868689    56.147591    56.147591 
  343000    460.77312    -37711.05   -37169.832    440.36135     179281.5    56.812715    56.175244    56.175244 
  344000    464.87275   -37707.451   -37161.418    632.07486     179281.5     56.75506    56.203769    56.203769 
  345000    455.94778   -37710.271    -37174.72    431.60891     179281.5    56.695952    56.233059    56.233059 
  346000    463.54182   -37717.811   -37173.341    387.45838     179281.5    56.635625       56.263       56.263 
  347000    458.11024   -37720.528   -37182.437    136.63492     179281.5    56.574317    56.293478    56.293478 
  348000    462.43403    -37708.64   -37165.471    391.62674     179281.5    56.512269    56.324373    56.324373 
  349000    462.53457   -37711.455   -37168.168    400.85846     179281.5    56.449726    56.355566    56.355566 
  350000    461.12777   -37705.716   -37164.081    318.46803     179281.5    56.386935    56.386935    56.386935 
  351000    462.51295   -37712.178   -37168.917    457.38251     179281.5    56.324145    56.418357    56.418357 
  352000    456.82143   -37709.385   -37172.809    553.89179     179281.5    56.261602    56.449707    56.449707 
  353000    460.46179   -37716.509   -37175.657    291.18006     179281.5    56.199554     56.48086     56.48086 
  354000    461.95004   -37707.782   -37165.181    496.95618     179281.5    56.138245    56.511693    56.511693 
  355000    449.71253   -37715.786    -37187.56    414.29094     179281.5    56.077918    56.542082    56.542082 
  356000    456.16046   -37710.463   -37174.663    530.39495     179281.5    56.018811    56.571904    56.571904 
  357000    459.35454    -37718.15   -37178.599    499.92128     179281.5    55.961156    56.601038    56.601038 
  358000      453.885   -37707.531   -37174.404    508.66864     179281.5    55.905182    56.629367    56.629367 
  359000    459.68664   -37704.094   -37164.153    744.89362     179281.5    55.851109    56.656773    56.656773 
  360000    460.83713   -37713.469   -37172.176    239.84803     179281.5     55.79915    56.683146    56.683146 
  361000    459.08588   -37696.681   -37157.445    793.55409     179281.5    55.749511    56.708375    56.708375 
  362000     453.5678   -37697.481   -37164.726     716.8718     179281.5    55.702388    56.732357    56.732357 
  363000    462.71551   -37698.743   -37155.244    659.83154     179281.5    55.657967    56.754992    56.754992 
  364000    462.90043   -37705.996   -37162.279    532.38175     179281.5    55.616422    56.776186    56.776186 
  365000    458.45028   -37708.457   -37169.967    496.66767     179281.5    55.577918    56.795849    56.795849 
  366000    456.82218   -37697.372   -37160.795    776.65016     179281.5    55.542607      56.8139      56.8139 
  367000    460.57175   -37702.048   -37161.067    539.31193     179281.5    55.510629    56.830263    56.830263 
  368000    461.33257   -37693.837   -37151.961    1002.2033     179281.5    55.482108    56.844868    56.844868 
  369000    456.86673   -37700.349    -37163.72    728.09225     179281.5    55.457159    56.857653    56.857653 
  370000    458.84113   -37700.839    -37161.89    732.74651     179281.5    55.435879    56.868565    56.868565 
  371000    461.51251   -37689.512   -37147.425    1163.5792     179281.5    55.418352    56.877557    56.877557 
  372000    453.56856   -37697.001   -37164.246    814.70662     179281.5    55.404648    56.884591    56.884591 
  373000     458.6243   -37696.111   -37157.417    1027.3166     179281.5    55.394821    56.889636    56.889636 
  374000     467.9726   -37695.565   -37145.891    968.17002     179281.5    55.388909    56.892672    56.892672 
  375000    461.38487    -37689.45   -37147.513    992.85427     179281.5    55.386935    56.893686    56.893686 
  376000     466.0345   -37691.182   -37143.784    834.89904     179281.5    55.388909    56.892672    56.892672 
  377000    456.38235   -37690.675   -37154.614    868.84941     179281.5    55.394821    56.889636    56.889636 
  378000    462.37312   -37697.092   -37153.994    844.82039     179281.5    55.404648    56.884591    56.884591 
  379000    462.93776   -37702.873   -37159.113    667.74706     179281.5    55.418352    56.877557    56.877557 
  380000    458.40326   -37693.843   -37155.409     734.3374     179281.5    55.435879    56.868565    56.868565 
  381000    456.98463   -37701.726   -37164.958    549.56962     179281.5    55.457159    56.857653    56.857653 
  382000    458.09183   -37699.214   -37161.145     500.4342     179281.5    55.482108    56.844868    56.844868 
  383000    455.14724    -37694.94    -37160.33    654.98243     179281.5    55.510629    56.830263    56.830263 
  384000    459.49276   -37707.547   -37167.833     456.5292     179281.5    55.542607      56.8139      56.8139 
  385000    471.92484   -37705.331   -37151.014    713.30915     179281.5    55.577918    56.795849    56.795849 
  386000    456.20181   -37702.294   -37166.445    599.54601     179281.5    55.616422    56.776186    56.776186 
  387000     457.3759   -37699.201   -37161.973    781.91994     179281.5    55.657967    56.754992    56.754992 
  388000    452.62068   -37708.356   -37176.713    671.92019     179281.5    55.702388    56.732357    56.732357 
  389000    463.01112   -37706.152   -37162.305    543.61769     179281.5    55.749511    56.708375    56.708375 
  390000    456.00707   -37710.954   -37175.334    581.81545     179281.5     55.79915    56.683146    56.683146 
  391000    466.07845   -37702.443   -37154.994    886.27511     179281.5    55.851109    56.656773    56.656773 
  392000    457.76875   -37700.471   -37162.781    762.99866     179281.5    55.905182    56.629367    56.629367 
  393000    458.10294   -37711.736   -37173.655    369.62096     179281.5    55.961156    56.601038    56.601038 
  394000    459.26955   -37707.431   -37167.979    443.99011     179281.5    56.018811    56.571904    56.571904 
  395000    461.62719   -37705.799   -37163.578    669.56426     179281.5    56.077918    56.542082    56.542082 
  396000    461.11959   -37710.138   -37168.513    460.44069     179281.5    56.138245    56.511693    56.511693 
  397000    466.40941   -37710.657   -37162.819    550.40738     179281.5    56.199554     56.48086     56.48086 
  398000    459.24974   -37709.503   -37170.074    664.25265     179281.5    56.261602    56.449707    56.449707 
  399000    463.31477    -37710.97   -37166.766    371.51343     179281.5    56.324145    56.418357    56.418357 
  400000    457.53789   -37712.259   -37174.841    505.44916     179281.5    56.386935    56.386935    56.386935 
  401000    453.85516   -37710.173   -37177.081    375.16551     179281.5    56.449726    56.355566    56.355566 
  402000    459.92079   -37715.706   -37175.489    279.22027     179281.5    56.512269    56.324373    56.324373 
  403000    452.47689    -37716.94   -37185.467    436.19585     179281.5    56.574317    56.293478    56.293478 
  404000    455.54996   -37714.062   -37178.979    141.77575     179281.5    56.635625       56.263       56.263 
  405000    464.11994   -37711.261   -37166.112    677.40267     179281.5    56.695952    56.233059    56.233059 
  406000    464.12512   -37706.772   -37161.616    637.29749     179281.5     56.75506    56.203769    56.203769 
  407000    461.07833    -37703.56   -37161.984    628.04262     179281.5    56.812715    56.175244    56.175244 
  408000    460.43626   -37703.396   -37162.574    580.33438     179281.5    56.868689    56.147591    56.147591 
  409000     455.7474   -37719.663   -37184.348    173.26113     179281.5    56.922762    56.120916    56.120916 
  410000    462.03899   -37710.812   -37168.107    532.53693     179281.5    56.974721    56.095321    56.095321 
  411000    457.92369   -37718.151    -37180.28    211.90071     179281.5    57.024359      56.0709      56.0709 
  412000    457.77599   -37704.298   -37166.601    531.41174     179281.5    57.071482    56.047747    56.047747 
  413000     457.2073   -37710.204   -37173.174    585.94784     179281.5    57.115904    56.025947    56.025947 
  414000     460.7033   -37710.235   -37169.099    477.05208     179281.5    57.157449    56.005583    56.005583 
  415000    463.01075    -37704.37   -37160.523    724.72393     179281.5    57.195952    55.986728    55.986728 
  416000    454.85388   -37699.684   -37165.418    676.35513     179281.5    57.231263    55.969454    55.969454 
  417000    460.20751   -37703.718   -37163.164    556.66928     179281.5    57.263242    55.953824    55.953824 
  418000    451.14402     -37708.4   -37178.492    500.04332     179281.5    57.291762    55.939895    55.939895 
  419000    456.99769   -37698.372   -37161.589    812.57831     179281.5    57.316712    55.927718    55.927718 
  420000    462.15582   -37707.403   -37164.561    668.20186     179281.5    57.337992    55.917339    55.917339 
  421000    464.13903   -37702.861   -37157.689    653.88828     179281.5    57.355518    55.908795    55.908795 
  422000    456.87205   -37702.649   -37166.013    216.72574     179281.5    57.369223    55.902117    55.902117 
  423000    455.04623   -37696.044   -37161.553    860.27412     179281.5     57.37905    55.897329    55.897329 
  424000     461.3462   -37709.009   -37167.118    544.73816     179281.5    57.384962     55.89445     55.89445 
  425000    459.22333   -37702.064   -37162.666    515.94845     179281.5    57.386935    55.893489    55.893489 
  426000     454.5223   -37701.553   -37167.677     608.3108     179281.5    57.384962     55.89445     55.89445 
  427000    463.19029   -37706.162   -37162.105    443.99911     179281.5     57.37905    55.897329    55.897329 
  428000    454.53916   -37701.422   -37167.526    629.38449     179281.5    57.369223    55.902117    55.902117 
  429000    462.85854   -37712.307   -37168.639      377.803     179281.5    57.355518    55.908795    55.908795 
  430000    459.29853   -37706.491   -37167.005    488.44097     179281.5    57.337992    55.917339    55.917339 
  431000    457.11812   -37696.213   -37159.289    635.99596     179281.5    57.316712    55.927718    55.927718 
  432000    461.63162   -37703.278   -37161.051    307.24904     179281.5    57.291762    55.939895    55.939895 
  433000    449.45884   -37702.322   -37174.394    531.18492     179281.5    57.263242    55.953824    55.953824 
  434000     460.3383   -37702.257    -37161.55    721.11848     179281.5    57.231263    55.969454    55.969454 
  435000    467.03611   -37701.155    -37152.58    568.43441     179281.5    57.195952    55.986728    55.986728 
  436000    458.62516   -37707.223   -37168.528     594.2614     179281.5    57.157449    56.005583    56.005583 
  437000    460.95788   -37721.747   -37180.312    191.54337     179281.5    57.115904    56.025947    56.025947 
  438000    457.63037     -37704.5   -37166.973    630.51883     179281.5    57.071482    56.047747    56.047747 
  439000    456.46025   -37709.775   -37173.622    387.21763     179281.5    57.024359      56.0709      56.0709 
  440000    457.31991   -37708.953   -37171.791    311.81813     179281.5    56.974721    56.095321    56.095321 
  441000    463.94548   -37708.867   -37163.923     529.4003     179281.5    56.922762    56.120916    56.120916 
  442000     465.3648   -37712.272   -37165.661    472.78565     179281.5    56.868689    56.147591    56.147591 
  443000    462.65119   -37716.831   -37173.406    138.91112     179281.5    56.812715    56.175244    56.175244 
  444000    470.39497   -37714.106   -37161.586    619.80889     179281.5     56.75506    56.203769    56.203769 
  445000    460.69315   -37711.985   -37170.861    221.00364     179281.5    56.695952    56.233059    56.233059 
  446000    463.87155   -37713.663   -37168.805    350.38177     179281.5    56.635625       56.263       56.263 
  447000     457.6562   -37712.649   -37175.092    206.61456     179281.5    56.574317    56.293478    56.293478 
  448000    452.20633   -37714.792   -37183.636    117.98605     179281.5    56.512269    56.324373    56.324373 
  449000    465.03728   -37699.397    -37153.17    922.59998     179281.5    56.449726    56.355566    56.355566 
  450000    464.38613   -37711.876   -37166.414    548.30368     179281.5    56.386935    56.386935    56.386935 
  451000    455.60573   -37702.729   -37167.581    520.74965     179281.5    56.324145    56.418357    56.418357 
  452000    456.63009   -37711.576   -37175.225    237.48098     179281.5    56.261602    56.449707    56.449707 
  453000    464.18161   -37707.311   -37162.089    838.91096     179281.5    56.199554     56.48086     56.48086 
  454000    454.23243    -37714.29   -37180.754    207.41319     179281.5    56.138245    56.511693    56.511693 
  455000    461.68734   -37705.233   -37162.941    503.19193     179281.5    56.077918    56.542082    56.542082 
  456000    458.48812    -37709.35   -37170.816    486.12003     179281.5    56.018811    56.571904    56.571904 
  457000     461.2613   -37717.837   -37176.046    332.39385     179281.5    55.961156    56.601038    56.601038 
  458000    462.30099   -37708.734   -37165.721    568.11157     179281.5    55.905182    56.629367    56.629367 
  459000    468.56431   -37708.754   -37158.385    615.30606     179281.5    55.851109    56.656773    56.656773 
  460000    472.62441    -37705.35   -37150.212    537.79272     179281.5     55.79915    56.683146    56.683146 
  461000    459.84941    -37706.17   -37166.037    501.30375     179281.5    55.749511    56.708375    56.708375 
  462000    456.31264   -37705.767   -37169.788    325.70456     179281.5    55.702388    56.732357    56.732357 
  463000    458.85433   -37700.835   -37161.871    614.55086     179281.5    55.657967    56.754992    56.754992 
  464000    465.42012   -37696.556   -37149.879     810.8838     179281.5    55.616422    56.776186    56.776186 
  465000    452.32596   -37711.678   -37180.382    359.67808     179281.5    55.577918    56.795849    56.795849 
  466000    460.93954    -37701.54   -37160.126    764.19437     179281.5    55.542607      56.8139      56.8139 
  467000    461.88649   -37690.604   -37148.078      912.308     179281.5    55.510629    56.830263    56.830263 
  468000    464.50979    -37700.49   -37154.883    703.43842     179281.5    55.482108    56.844868    56.844868 
  469000    463.21298   -37702.526   -37158.442    846.07706     179281.5    55.457159    56.857653    56.857653 
  470000    454.95835   -37697.815   -37163.427    774.66446     179281.5    55.435879    56.868565    56.868565 
  471000    461.16624   -37700.421   -37158.741    804.24377     179281.5    55.418352    56.877557    56.877557 
  472000    455.62262   -37700.701   -37165.533    585.38683     179281.5    55.404648    56.884591    56.884591 
  473000    463.02069    -37693.26   -37149.402    910.84711     179281.5    55.394821    56.889636    56.889636 
  474000    456.05739   -37695.629    -37159.95    866.05945     179281.5    55.388909    56.892672    56.892672 
  475000    461.73385   -37697.435   -37155.089    877.82898     179281.5    55.386935    56.893686    56.893686 
  476000    462.19263   -37701.457   -37158.572    683.75242     179281.5    55.388909    56.892672    56.892672 
  477000    460.22016   -37687.026   -37146.458    923.39387     179281.5    55.394821    56.889636    56.889636 
  478000    457.63986    -37702.41   -37164.872    625.00594     179281.5    55.404648    56.884591    56.884591 
  479000    449.78644   -37696.109   -37167.796    823.89197     179281.5    55.418352    56.877557    56.877557 
  480000    466.98468   -37698.568   -37150.054      791.952     179281.5    55.435879    56.868565    56.868565 
  481000    458.66149   -37705.304   -37166.567     658.7882     179281.5    55.457159    56.857653    56.857653 
  482000    461.26512   -37708.776    -37166.98    690.56568     179281.5    55.482108    56.844868    56.844868 
  483000    462.08953   -37704.833   -37162.069    675.83324     179281.5    55.510629    56.830263    56.830263 
  484000    456.94233    -37697.77   -37161.052    714.16448     179281.5    55.542607      56.8139      56.8139 
  485000    470.86807   -37706.917   -37153.842    524.31769     179281.5    55.577918    56.795849    56.795849 
  486000    466.74545   -37699.518   -37151.285      656.718     179281.5    55.616422    56.776186    56.776186 
  487000    461.08109   -37698.163   -37156.583    880.65709     179281.5    55.657967    56.754992    56.754992 
  488000    461.26817   -37706.744   -37164.944    477.25522     179281.5    55.702388    56.732357    56.732357 
  489000     463.9015    -37710.27   -37165.377    464.13003     179281.5    55.749511    56.708375    56.708375 
  490000    455.53298   -37698.481   -37163.418    961.23144     179281.5     55.79915    56.683146    56.683146 
  491000    454.03352   -37701.733   -37168.431    774.55577     179281.5    55.851109    56.656773    56.656773 
  492000    462.00475    -37702.93   -37160.265    614.07241     179281.5    55.905182    56.629367    56.629367 
  493000    458.85679    -37703.97   -37165.003    702.34564     179281.5    55.961156    56.601038    56.601038 
  494000    460.43481   -37701.763   -37160.942    818.02413     179281.5    56.018811    56.571904    56.571904 
  495000    472.34852   -37705.192   -37150.377    690.65734     179281.5    56.077918    56.542082    56.542082 
  496000    454.41139   -37707.276    -37173.53    640.44603     179281.5    56.138245    56.511693    56.511693 
  497000    461.44365   -37716.567   -37174.562    323.83873     179281.5    56.199554     56.48086     56.48086 
  498000    462.54393   -37705.425   -37162.127    744.29165     179281.5    56.261602    56.449707    56.449707 
  499000    457.36485   -37709.273   -37172.058    546.43196     179281.5    56.324145    56.418357    56.418357 
  500000    457.23513   -37716.527   -37179.465    359.67706     179281.5    56.386935    56.386935    56.386935 
  501000      455.224    -37710.14    -37175.44    360.36302     179281.5    56.449726    56.355566    56.355566 
  502000    459.62087    -37708.62   -37168.755    600.94534     179281.5    56.512269    56.324373    56.324373 
  503000    458.90953   -37717.139    -37178.11    121.99628     179281.5    56.574317    56.293478    56.293478 
  504000    455.84432   -37718.489    -37183.06    180.46227     179281.5    56.635625       56.263       56.263 
  505000    463.02269   -37716.705   -37172.845     369.1342     179281.5    56.695952    56.233059    56.233059 
  506000    462.55299   -37705.498   -37162.189    773.98162     179281.5     56.75506    56.203769    56.203769 
  507000    459.78621   -37698.863   -37158.805    847.61721     179281.5    56.812715    56.175244    56.175244 
  508000    464.44383   -37706.292   -37160.763    480.26562     179281.5    56.868689    56.147591    56.147591 
  509000    463.76085   -37716.595   -37171.867    274.49599     179281.5    56.922762    56.120916    56.120916 
  510000    458.62627   -37701.023   -37162.326    509.27446     179281.5    56.974721    56.095321    56.095321 
  511000    460.92209   -37697.014   -37155.621    841.42441     179281.5    57.024359      56.0709      56.0709 
  512000    452.93083   -37706.121   -37174.114    498.63179     179281.5    57.071482    56.047747    56.047747 
  513000    457.99169   -37707.747   -37169.796    445.47208     179281.5    57.115904    56.025947    56.025947 
  514000    464.93925   -37713.135   -37167.024    532.44444     179281.5    57.157449    56.005583    56.005583 
  515000    453.62003    -37699.73   -37166.914    942.61552     179281.5    57.195952    55.986728    55.986728 
  516000    460.70087   -37696.271   -37155.138    909.17699     179281.5    57.231263    55.969454    55.969454 
  517000    458.10353   -37705.535   -37167.452    515.16732     179281.5    57.263242    55.953824    55.953824 
  518000     465.0867   -37708.137   -37161.852    574.38105     179281.5    57.291762    55.939895    55.939895 
  519000    461.69377   -37698.562   -37156.263    784.35334     179281.5    57.316712    55.927718    55.927718 
  520000    458.54656   -37703.506   -37164.903    544.71337     179281.5    57.337992    55.917339    55.917339 
  521000    459.08801   -37699.573   -37160.334    722.70715     179281.5    57.355518    55.908795    55.908795 
  522000    469.51464   -37700.439   -37148.953    727.46856     179281.5    57.369223    55.902117    55.902117 
  523000    465.97582   -37707.543   -37160.214    595.23801     179281.5     57.37905    55.897329    55.897329 
  524000    465.28997   -37704.696   -37158.173    675.28458     179281.5    57.384962     55.89445     55.89445 
  525000    456.05226   -37703.488   -37167.815     549.5155     179281.5    57.386935    55.893489    55.893489 
  526000    458.99404   -37709.395   -37170.267    441.35193     179281.5    57.384962     55.89445     55.89445 
  527000     454.9831   -37695.388    -37160.97    779.66849     179281.5     57.37905    55.897329    55.897329 
  528000    463.01578   -37706.865   -37163.013    513.28471     179281.5    57.369223    55.902117    55.902117 
  529000    462.46824   -37701.018   -37157.809    700.37498     179281.5    57.355518    55.908795    55.908795 
  530000    458.27549   -37702.022   -37163.738    514.00508     179281.5    57.337992    55.917339    55.917339 
  531000    464.10272    -37704.24   -37159.111     712.5045     179281.5    57.316712    55.927718    55.927718 
  532000    461.48042   -37708.458   -37166.409    449.67763     179281.5    57.291762    55.939895    55.939895 
  533000    459.64135   -37698.517   -37158.629    682.57988     179281.5    57.263242    55.953824    55.953824 
  534000    461.83096   -37697.321    -37154.86    912.17695     179281.5    57.231263    55.969454    55.969454 
  535000    462.20171   -37710.523   -37167.627     454.5014     179281.5    57.195952    55.986728    55.986728 
  536000    454.33337   -37707.549   -37173.895    814.47186     179281.5    57.157449    56.005583    56.005583 
  537000    462.36702   -37707.973   -37164.882    413.13427     179281.5    57.115904    56.025947    56.025947 
  538000    452.14886   -37707.858    -37176.77     269.6921     179281.5    57.071482    56.047747    56.047747 
  539000    460.91538    -37710.46   -37169.075    449.32005     179281.5    57.024359      56.0709      56.0709 
  540000    462.35096   -37712.632   -37169.561    380.01679     179281.5    56.974721    56.095321    56.095321 
  541000    456.70919   -37714.997   -37178.552    470.16737     179281.5    56.922762    56.120916    56.120916 
  542000    458.96624   -37711.231   -37172.136    249.58787     179281.5    56.868689    56.147591    56.147591 
  543000    457.01494   -37706.669   -37169.865    349.58987     179281.5    56.812715    56.175244    56.175244 
  544000    470.12271   -37710.947   -37158.747    449.85431     179281.5     56.75506    56.203769    56.203769 
  545000    453.21712   -37708.906   -37176.563    162.14965     179281.5    56.695952    56.233059    56.233059 
  546000    459.26894   -37716.116   -37176.665    133.67353     179281.5    56.635625       56.263       56.263 
  547000     452.0323    -37710.03   -37179.079    527.74597     179281.5    56.574317    56.293478    56.293478 
  548000    453.62272   -37710.921   -37178.102    349.32522     179281.5    56.512269    56.324373    56.324373 
  549000    462.15743   -37710.077   -37167.233    501.80688     179281.5    56.449726    56.355566    56.355566 
  550000    463.18226   -37709.853   -37165.806    471.81023     179281.5    56.386935    56.386935    56.386935 
  551000    451.41393   -37717.001   -37186.777     80.79118     179281.5    56.324145    56.418357    56.418357 
  552000    461.11614   -37714.626   -37173.005    378.84366     179281.5    56.261602    56.449707    56.449707 
  553000    451.83436   -37708.688   -37177.969    272.80074     179281.5    56.199554     56.48086     56.48086 
  554000    463.12566   -37710.774   -37166.792    280.61317     179281.5    56.138245    56.511693    56.511693 
  555000    457.04438   -37705.315   -37168.477    679.47264     179281.5    56.077918    56.542082    56.542082 
  556000      453.738   -37714.095    -37181.14    369.67309     179281.5    56.018811    56.571904    56.571904 
  557000    460.91606     -37703.7   -37162.314    769.36713     179281.5    55.961156    56.601038    56.601038 
  558000    459.93412    -37713.55   -37173.317    497.71064     179281.5    55.905182    56.629367    56.629367 
  559000    462.60393   -37707.331   -37163.962    596.91749     179281.5    55.851109    56.656773    56.656773 
  560000    454.91327   -37705.775    -37171.44    665.29902     179281.5     55.79915    56.683146    56.683146 
  561000     462.2821   -37704.358   -37161.367    507.94741     179281.5    55.749511    56.708375    56.708375 
  562000    457.89142   -37705.171   -37167.338    603.21609     179281.5    55.702388    56.732357    56.732357 
  563000    452.61908   -37705.028   -37173.388    443.66913     179281.5    55.657967    56.754992    56.754992 
  564000    465.56464   -37704.646   -37157.799    793.34369     179281.5    55.616422    56.776186    56.776186 
  565000    463.48136   -37702.444   -37158.045    593.62759     179281.5    55.577918    56.795849    56.795849 
  566000    460.46813   -37702.528   -37161.669    669.87909     179281.5    55.542607      56.8139      56.8139 
  567000    460.70764   -37703.447   -37162.305    661.09634     179281.5    55.510629    56.830263    56.830263 
  568000     455.2294   -37704.321   -37169.615    640.32492     179281.5    55.482108    56.844868    56.844868 
  569000    461.17824    -37695.76   -37154.066     830.2614     179281.5    55.457159    56.857653    56.857653 
  570000    454.50893   -37703.268   -37169.407     787.7727     179281.5    55.435879    56.868565    56.868565 
  571000    462.53699   -37696.625   -37153.335    826.40533     179281.5    55.418352    56.877557    56.877557 
  572000    455.15879   -37692.357   -37157.733     1011.381     179281.5    55.404648    56.884591    56.884591 
  573000    461.97509   -37705.436   -37162.806    461.25906     179281.5    55.394821    56.889636    56.889636 
  574000    458.13777   -37698.951   -37160.828    498.49239     179281.5    55.388909    56.892672    56.892672 
  575000     457.6813   -37695.266    -37157.68    580.59671     179281.5    55.386935    56.893686    56.893686 
  576000    461.08698   -37700.673   -37159.086    797.12508     179281.5    55.388909    56.892672    56.892672 
  577000    461.21024   -37703.965   -37162.234    442.10264     179281.5    55.394821    56.889636    56.889636 
  578000    462.55642   -37709.811   -37166.498    517.28822     179281.5    55.404648    56.884591    56.884591 
  579000    453.46455   -37703.232   -37170.599     509.1148     179281.5    55.418352    56.877557    56.877557 
  580000    460.24677   -37699.122   -37158.523    852.20994     179281.5    55.435879    56.868565    56.868565 
  581000    466.16609   -37698.606   -37151.053    696.52204     179281.5    55.457159    56.857653    56.857653 
  582000    456.88939   -37695.768   -37159.112    946.26852     179281.5    55.482108    56.844868    56.844868 
  583000    456.90943   -37695.767   -37159.087    909.86498     179281.5    55.510629    56.830263    56.830263 
  584000    453.08701   -37709.456   -37177.266     622.8709     179281.5    55.542607      56.8139      56.8139 
  585000    461.02551   -37703.926   -37162.412     671.9735     179281.5    55.577918    56.795849    56.795849 
  586000    465.68678   -37705.282   -37158.292    413.50622     179281.5    55.616422    56.776186    56.776186 
  587000    455.08864    -37701.93   -37167.389    686.00599     179281.5    55.657967    56.754992    56.754992 
  588000    459.41551   -37703.843    -37164.22    561.68884     179281.5    55.702388    56.732357    56.732357 
  589000    461.28113   -37712.922   -37171.107    407.72934     179281.5    55.749511    56.708375    56.708375 
  590000    457.25618   -37709.033   -37171.946    345.67211     179281.5     55.79915    56.683146    56.683146 
  591000    467.37446    -37709.08   -37160.108    532.81377     179281.5    55.851109    56.656773    56.656773 
  592000    466.24245   -37709.352    -37161.71    259.02298     179281.5    55.905182    56.629367    56.629367 
  593000     465.9811   -37708.266    -37160.93    686.46348     179281.5    55.961156    56.601038    56.601038 
  594000     462.6507   -37698.852   -37155.428    545.79395     179281.5    56.018811    56.571904    56.571904 
  595000    459.05284   -37704.833   -37165.635    573.50271     179281.5    56.077918    56.542082    56.542082 
  596000    458.80255   -37705.556   -37166.653    572.23703     179281.5    56.138245    56.511693    56.511693 
  597000    470.26311   -37715.827   -37163.462    124.16853     179281.5    56.199554     56.48086     56.48086 
  598000    458.56496   -37725.967   -37187.342    102.74764     179281.5    56.261602    56.449707    56.449707 
  599000    465.70163   -37701.186   -37154.179     573.9202     179281.5    56.324145    56.418357    56.418357 
  600000    455.42183   -37695.597   -37160.665    740.76304     179281.5    56.386935    56.386935    56.386935 
  601000    464.14215   -37714.745   -37169.569    374.88701     179281.5    56.449726    56.355566    56.355566 
  602000      453.983   -37715.246   -37182.004    314.20782     179281.5    56.512269    56.324373    56.324373 
  603000    456.95298   -37711.766   -37175.035     401.7991     179281.5    56.574317    56.293478    56.293478 
  604000    456.93342   -37710.176   -37173.468     438.2079     179281.5    56.635625       56.263       56.263 
  605000    451.64951   -37710.772    -37180.27     200.6372     179281.5    56.695952    56.233059    56.233059 
  606000    459.62819   -37714.149   -37174.275    356.35058     179281.5     56.75506    56.203769    56.203769 
  607000    459.02157   -37708.244   -37169.083    355.40856     179281.5    56.812715    56.175244    56.175244 
  608000    464.04229   -37710.617   -37165.559    239.42793     179281.5    56.868689    56.147591    56.147591 
  609000    460.59179   -37705.054   -37164.049    650.04346     179281.5    56.922762    56.120916    56.120916 
  610000    465.01194   -37711.333   -37165.136    647.13117     179281.5    56.974721    56.095321    56.095321 
  611000    457.67033   -37714.452   -37176.878    284.92434     179281.5    57.024359      56.0709      56.0709 
  612000    451.28563   -37699.726   -37169.652    596.43586     179281.5    57.071482    56.047747    56.047747 
  613000    460.73367   -37711.616   -37170.444    412.44283     179281.5    57.115904    56.025947    56.025947 
  614000    456.86883    -37706.89   -37170.258    580.77867     179281.5    57.157449    56.005583    56.005583 
  615000    463.49377   -37699.366   -37154.953    815.52483     179281.5    57.195952    55.986728    55.986728 
  616000    456.87496   -37706.727   -37170.087    437.43037     179281.5    57.231263    55.969454    55.969454 
  617000    461.42282    -37703.53   -37161.549    715.66136     179281.5    57.263242    55.953824    55.953824 
  618000    460.13447    -37706.41   -37165.942    675.06257     179281.5    57.291762    55.939895    55.939895 
  619000    468.65991   -37699.893   -37149.411    910.16136     179281.5    57.316712    55.927718    55.927718 
  620000    457.02252   -37709.464   -37172.651    420.64192     179281.5    57.337992    55.917339    55.917339 
  621000    458.91053   -37707.671   -37168.641    345.59064     179281.5    57.355518    55.908795    55.908795 
  622000    463.84778   -37704.435   -37159.605    675.59019     179281.5    57.369223    55.902117    55.902117 
  623000    455.63053   -37707.672   -37172.494     540.8939     179281.5     57.37905    55.897329    55.897329 
  624000    460.34629   -37697.103   -37156.387    905.92332     179281.5    57.384962     55.89445     55.89445 
  625000    458.60956   -37698.896   -37160.219    581.30982     179281.5    57.386935    55.893489    55.893489 
  626000    457.20583   -37701.626   -37164.598    481.49207     179281.5    57.384962     55.89445     55.89445 
  627000    464.06098   -37709.397   -37164.317     462.8368     179281.5     57.37905    55.897329    55.897329 
  628000    456.92584   -37705.651   -37168.952    395.67916     179281.5    57.369223    55.902117    55.902117 
  629000    454.64753    -37706.46   -37172.436    650.21444     179281.5    57.355518    55.908795    55.908795 
  630000    453.50951   -37704.625   -37171.938    615.88415     179281.5    57.337992    55.917339    55.917339 
  631000    466.01368   -37705.909   -37158.535    893.17537     179281.5    57.316712    55.927718    55.927718 
  632000    458.18341   -37700.938   -37162.762    538.13493     179281.5    57.291762    55.939895    55.939895 
  633000    460.26761   -37701.832   -37161.208    451.63299     179281.5    57.263242    55.953824    55.953824 
  634000    467.20258   -37703.676   -37154.906    576.72387     179281.5    57.231263    55.969454    55.969454 
  635000     458.6373   -37711.381   -37172.671    260.45069     179281.5    57.195952    55.986728    55.986728 
  636000     460.2917   -37706.273   -37165.621    385.90161     179281.5    57.157449    56.005583    56.005583 
  637000    459.71361   -37700.756   -37160.783    581.20314     179281.5    57.115904    56.025947    56.025947 
  638000    461.84888   -37714.208   -37171.726    391.36872     179281.5    57.071482    56.047747    56.047747 
  639000     462.9337   -37702.834   -37159.078    330.65897     179281.5    57.024359      56.0709      56.0709 
  640000    462.18544   -37708.761   -37165.884    486.59161     179281.5    56.974721    56.095321    56.095321 
  641000    457.56875   -37708.312   -37170.858    532.70914     179281.5    56.922762    56.120916    56.120916 
  642000    461.64428   -37711.326   -37169.085    218.74731     179281.5    56.868689    56.147591    56.147591 
  643000     460.6997   -37720.984   -37179.853    116.76865     179281.5    56.812715    56.175244    56.175244 
  644000    459.04823   -37705.317   -37166.125    558.58957     179281.5     56.75506    56.203769    56.203769 
  645000    456.74366   -37711.078   -37174.593    379.34726     179281.5    56.695952    56.233059    56.233059 
  646000    462.72357    -37718.08   -37174.571     250.4351     179281.5    56.635625       56.263       56.263 
  647000    455.42534   -37708.201   -37173.264    450.98755     179281.5    56.574317    56.293478    56.293478 
  648000    453.71351   -37723.406    -37190.48   -35.215491     179281.5    56.512269    56.324373    56.324373 
  649000    461.36801   -37716.884   -37174.967    244.94758     179281.5    56.449726    56.355566    56.355566 
  650000    460.18025   -37712.577   -37172.056    175.72342     179281.5    56.386935    56.386935    56.386935 
  651000    452.19014    -37718.31   -37187.174    173.58885     179281.5    56.324145    56.418357    56.418357 
  652000    459.73889   -37707.117   -37167.114    602.80167     179281.5    56.261602    56.449707    56.449707 
  653000    459.63439   -37707.351    -37167.47    553.73959     179281.5    56.199554     56.48086     56.48086 
  654000    455.17421   -37716.593   -37181.952    110.50377     179281.5    56.138245    56.511693    56.511693 
  655000    455.60337   -37714.468   -37179.322    53.555538     179281.5    56.077918    56.542082    56.542082 
  656000    462.19478   -37710.391   -37167.503    568.57679     179281.5    56.018811    56.571904    56.571904 
  657000    452.36223   -37713.264   -37181.925    458.47636     179281.5    55.961156    56.601038    56.601038 
  658000    456.18382   -37710.902   -37175.075    461.83594     179281.5    55.905182    56.629367    56.629367 
  659000    457.25047   -37708.919   -37171.838    381.89037     179281.5    55.851109    56.656773    56.656773 
  660000    458.21994   -37707.067   -37168.848    623.84966     179281.5     55.79915    56.683146    56.683146 
  661000    468.91425    -37704.13   -37153.349    574.82632     179281.5    55.749511    56.708375    56.708375 
  662000    459.19094   -37708.025   -37168.665     536.6241     179281.5    55.702388    56.732357    56.732357 
  663000    465.12195   -37721.819   -37175.493    136.78318     179281.5    55.657967    56.754992    56.754992 
  664000    466.30988   -37702.799   -37155.077    740.79654     179281.5    55.616422    56.776186    56.776186 
  665000    467.56465   -37710.146   -37160.951    637.50276     179281.5    55.577918    56.795849    56.795849 
  666000    459.20287   -37708.562   -37169.189    533.16262     179281.5    55.542607      56.8139      56.8139 
  667000    457.99206   -37711.358   -37173.406    509.83473     179281.5    55.510629    56.830263    56.830263 
  668000     453.5405     -37703.1   -37170.377    648.58012     179281.5    55.482108    56.844868    56.844868 
  669000    463.45672   -37697.394   -37153.024    1020.9356     179281.5    55.457159    56.857653    56.857653 
  670000    452.12287   -37695.355   -37164.298    1032.5435     179281.5    55.435879    56.868565    56.868565 
  671000    461.11628   -37698.279   -37156.658    601.85503     179281.5    55.418352    56.877557    56.877557 
  672000    454.42211    -37703.47   -37169.712     575.9372     179281.5    55.404648    56.884591    56.884591 
  673000    454.91721   -37696.313   -37161.973     661.1117     179281.5    55.394821    56.889636    56.889636 
  674000    462.56213   -37699.539    -37156.22    753.04501     179281.5    55.388909    56.892672    56.892672 
  675000    457.98763   -37701.489   -37163.543    774.87635     179281.5    55.386935    56.893686    56.893686 
  676000    466.99101   -37695.259   -37146.737     913.4232     179281.5    55.388909    56.892672    56.892672 
  677000    463.43203   -37698.559   -37154.218    716.95837     179281.5    55.394821    56.889636    56.889636 
  678000    463.38258   -37702.549   -37158.266    699.74543     179281.5    55.404648    56.884591    56.884591 
  679000    464.90856   -37689.026   -37142.951    820.83502     179281.5    55.418352    56.877557    56.877557 
  680000    464.74609   -37702.983   -37157.098    612.04681     179281.5    55.435879    56.868565    56.868565 
  681000     458.1037   -37702.313    -37164.23    720.43134     179281.5    55.457159    56.857653    56.857653 
  682000    463.76916   -37697.039   -37152.302    934.67472     179281.5    55.482108    56.844868    56.844868 
[...]
  838000    463.36911   -37710.086   -37165.819    410.26445     179281.5    57.071482    56.047747    56.047747 
  839000    462.48498   -37708.804   -37165.575    337.52569     179281.5    57.024359      56.0709      56.0709 
  840000    449.78633   -37707.495   -37179.182    543.48254     179281.5    56.974721    56.095321    56.095321 
  841000    464.80171   -37702.263   -37156.313    638.57666     179281.5    56.922762    56.120916    56.120916 
  842000    461.67178   -37712.846   -37170.572    315.44562     179281.5    56.868689    56.147591    56.147591 
  843000    453.38299   -37712.865   -37180.327    242.35207     179281.5    56.812715    56.175244    56.175244 
  844000    464.15572   -37712.272   -37167.081    256.80683     179281.5     56.75506    56.203769    56.203769 
  845000    464.21911   -37714.844   -37169.578    385.04086     179281.5    56.695952    56.233059    56.233059 
  846000    463.65138   -37712.744   -37168.145    509.15859     179281.5    56.635625       56.263       56.263 
  847000    458.37443   -37712.779   -37174.379    278.72635     179281.5    56.574317    56.293478    56.293478 
  848000    459.70048   -37720.071   -37180.113    146.14086     179281.5    56.512269    56.324373    56.324373 
  849000     457.4382   -37718.805   -37181.504    34.812392     179281.5    56.449726    56.355566    56.355566 
  850000     468.4383   -37715.069   -37164.848    269.72265     179281.5    56.386935    56.386935    56.386935 
  851000    458.83301   -37711.761   -37172.822     609.6763     179281.5    56.324145    56.418357    56.418357 
  852000    463.08608   -37715.242   -37171.307    487.48755     179281.5    56.261602    56.449707    56.449707 
  853000    462.15191   -37715.119   -37172.282    459.01656     179281.5    56.199554     56.48086     56.48086 
  854000    460.42184    -37724.86   -37184.055     281.3177     179281.5    56.138245    56.511693    56.511693 
  855000    459.00048   -37712.757   -37173.621    285.52533     179281.5    56.077918    56.542082    56.542082 
  856000    459.62013   -37708.871   -37169.007    681.48254     179281.5    56.018811    56.571904    56.571904 
  857000    456.13404   -37714.964   -37179.195    431.12185     179281.5    55.961156    56.601038    56.601038 
  858000    453.29146   -37701.787   -37169.356    645.00154     179281.5    55.905182    56.629367    56.629367 
  859000    460.57932   -37709.617   -37168.626    219.31772     179281.5    55.851109    56.656773    56.656773 
  860000    460.30166   -37709.337   -37168.673    497.29327     179281.5     55.79915    56.683146    56.683146 
  861000    459.25946   -37707.525   -37168.085     658.9896     179281.5    55.749511    56.708375    56.708375 
  862000    461.67344   -37706.265   -37163.989    583.21509     179281.5    55.702388    56.732357    56.732357 
  863000    460.26777   -37704.808   -37164.184    644.98789     179281.5    55.657967    56.754992    56.754992 
  864000    463.12947   -37705.422   -37161.436    627.07477     179281.5    55.616422    56.776186    56.776186 
  865000    454.03257   -37696.715   -37163.414    743.19474     179281.5    55.577918    56.795849    56.795849 
  866000    462.39922   -37705.477   -37162.349     471.8358     179281.5    55.542607      56.8139      56.8139 
  867000    454.41636   -37694.171   -37160.419      851.079     179281.5    55.510629    56.830263    56.830263 
  868000     464.3424    -37696.38    -37150.97    948.75873     179281.5    55.482108    56.844868    56.844868 
  869000    461.03877   -37701.936   -37160.406    701.86223     179281.5    55.457159    56.857653    56.857653 
  870000    465.85377   -37692.027   -37144.841    932.48536     179281.5    55.435879    56.868565    56.868565 
  871000    457.41779   -37695.142   -37157.865    768.92833     179281.5    55.418352    56.877557    56.877557 
  872000    458.96789    -37698.73   -37159.632    850.47139     179281.5    55.404648    56.884591    56.884591 
  873000    462.38589   -37698.624   -37155.512    942.94865     179281.5    55.394821    56.889636    56.889636 
  874000    457.15575   -37694.116   -37157.146     1192.844     179281.5    55.388909    56.892672    56.892672 
  875000    461.58521   -37702.194   -37160.022    521.61802     179281.5    55.386935    56.893686    56.893686 
  876000    461.56359   -37701.055   -37158.908    748.42564     179281.5    55.388909    56.892672    56.892672 
  877000    464.90684   -37699.265   -37153.192    789.23365     179281.5    55.394821    56.889636    56.889636 
  878000    466.79216   -37697.551   -37149.263    768.20128     179281.5    55.404648    56.884591    56.884591 
  879000    467.05892   -37698.495   -37149.893    731.30902     179281.5    55.418352    56.877557    56.877557 
  880000    456.26715   -37693.906   -37157.981    809.86367     179281.5    55.435879    56.868565    56.868565 
  881000    462.81973   -37699.221   -37155.599    884.31526     179281.5    55.457159    56.857653    56.857653 
  882000    456.19492   -37700.123   -37164.283    793.45154     179281.5    55.482108    56.844868    56.844868 
  883000    465.40073   -37694.496   -37147.842    861.10635     179281.5    55.510629    56.830263    56.830263 
  884000    461.05387   -37708.415   -37166.867    349.37128     179281.5    55.542607      56.8139      56.8139 
  885000    452.61204   -37695.627   -37163.994    869.05707     179281.5    55.577918    56.795849    56.795849 
  886000    461.19922   -37700.234   -37158.515    652.53236     179281.5    55.616422    56.776186    56.776186 
  887000    464.19988   -37708.388   -37163.145    620.02886     179281.5    55.657967    56.754992    56.754992 
  888000    457.61621    -37697.07    -37159.56     697.4423     179281.5    55.702388    56.732357    56.732357 
  889000    457.54089    -37703.35   -37165.929    781.09594     179281.5    55.749511    56.708375    56.708375 
  890000    453.57618   -37704.884   -37172.119    457.82876     179281.5     55.79915    56.683146    56.683146 
  891000    462.90171   -37709.033   -37165.315    394.06889     179281.5    55.851109    56.656773    56.656773 
  892000    459.63086   -37706.706   -37166.829    329.76444     179281.5    55.905182    56.629367    56.629367 
  893000    462.47697   -37711.947   -37168.728    530.83724     179281.5    55.961156    56.601038    56.601038 
  894000    467.14145   -37720.443   -37171.744    251.15441     179281.5    56.018811    56.571904    56.571904 
  895000    461.72504   -37713.623   -37171.287    275.25025     179281.5    56.077918    56.542082    56.542082 
  896000    454.02572   -37706.361   -37173.069     503.8054     179281.5    56.138245    56.511693    56.511693 
  897000    464.29068   -37701.575   -37156.225    872.87434     179281.5    56.199554     56.48086     56.48086 
  898000    458.64731   -37712.127   -37173.406    493.09262     179281.5    56.261602    56.449707    56.449707 
  899000    461.61661   -37711.513   -37169.304    665.29472     179281.5    56.324145    56.418357    56.418357 
  900000    454.83993   -37711.322   -37177.073    224.45491     179281.5    56.386935    56.386935    56.386935 
  901000    458.81605   -37714.384   -37175.464     183.9966     179281.5    56.449726    56.355566    56.355566 
  902000    459.80347   -37710.244   -37170.165    498.15617     179281.5    56.512269    56.324373    56.324373 
  903000    454.14513    -37718.07   -37184.637    313.86799     179281.5    56.574317    56.293478    56.293478 
  904000     460.2372   -37713.728    -37173.14    282.81318     179281.5    56.635625       56.263       56.263 
  905000    460.63006   -37721.296   -37180.246    137.51476     179281.5    56.695952    56.233059    56.233059 
  906000    462.01813   -37705.559   -37162.878    826.78085     179281.5     56.75506    56.203769    56.203769 
  907000    460.45603   -37719.744   -37178.899    366.38977     179281.5    56.812715    56.175244    56.175244 
  908000     461.9586    -37712.37   -37169.759     481.1961     179281.5    56.868689    56.147591    56.147591 
  909000    460.29012   -37707.818   -37167.167    552.56206     179281.5    56.922762    56.120916    56.120916 
  910000    454.04666   -37708.549   -37175.232    437.65237     179281.5    56.974721    56.095321    56.095321 
  911000    463.06873   -37709.765   -37165.851    485.53482     179281.5    57.024359      56.0709      56.0709 
  912000    458.38507   -37708.683    -37170.27    263.24471     179281.5    57.071482    56.047747    56.047747 
  913000    461.78479   -37710.659   -37168.253    738.48397     179281.5    57.115904    56.025947    56.025947 
  914000    454.59825   -37705.937   -37171.972    614.70252     179281.5    57.157449    56.005583    56.005583 
  915000    460.11459   -37716.668   -37176.223    305.85688     179281.5    57.195952    55.986728    55.986728 
  916000    464.13682   -37695.325   -37150.156    723.84056     179281.5    57.231263    55.969454    55.969454 
  917000    452.40161   -37702.152   -37170.767    509.70384     179281.5    57.263242    55.953824    55.953824 
  918000    458.52461   -37706.063   -37167.486    398.23982     179281.5    57.291762    55.939895    55.939895 
  919000    458.42801   -37696.212   -37157.748    749.29824     179281.5    57.316712    55.927718    55.927718 
  920000    454.22859    -37691.43   -37157.899    987.48774     179281.5    57.337992    55.917339    55.917339 
  921000    464.63574   -37710.676   -37164.921    176.22442     179281.5    57.355518    55.908795    55.908795 
  922000    466.60437    -37701.09   -37153.022    589.21108     179281.5    57.369223    55.902117    55.902117 
  923000    463.30108   -37699.759   -37155.572    966.85869     179281.5     57.37905    55.897329    55.897329 
  924000     463.9403   -37696.331   -37151.393      811.545     179281.5    57.384962     55.89445     55.89445 
  925000    461.64117   -37708.441   -37166.203    541.57478     179281.5    57.386935    55.893489    55.893489 
  926000    460.06674   -37706.164   -37165.776    362.15501     179281.5    57.384962     55.89445     55.89445 
  927000    462.92472   -37697.996   -37154.251    779.76684     179281.5     57.37905    55.897329    55.897329 
  928000    463.70789   -37701.662   -37156.996    525.61977     179281.5    57.369223    55.902117    55.902117 
  929000    457.81759   -37698.512   -37160.765    681.34095     179281.5    57.355518    55.908795    55.908795 
  930000    462.14924   -37696.205   -37153.371    769.22798     179281.5    57.337992    55.917339    55.917339 
  931000     453.4339   -37708.017   -37175.419    350.65167     179281.5    57.316712    55.927718    55.927718 
  932000    466.35782    -37699.76   -37151.982    1002.8093     179281.5    57.291762    55.939895    55.939895 
  933000    455.88445   -37698.054   -37162.578    824.41657     179281.5    57.263242    55.953824    55.953824 
  934000    455.84339   -37719.601   -37184.173    124.50231     179281.5    57.231263    55.969454    55.969454 
  935000    466.32679   -37701.648   -37153.907    741.18349     179281.5    57.195952    55.986728    55.986728 
  936000    460.64914   -37710.661   -37169.589    431.07885     179281.5    57.157449    56.005583    56.005583 
  937000    459.67357   -37710.801   -37170.875    504.91023     179281.5    57.115904    56.025947    56.025947 
  938000    456.50793   -37712.192   -37175.983    448.34067     179281.5    57.071482    56.047747    56.047747 
  939000    461.02521   -37705.477   -37163.963    616.84733     179281.5    57.024359      56.0709      56.0709 
  940000    463.22529   -37708.512   -37164.414    507.39243     179281.5    56.974721    56.095321    56.095321 
  941000    453.33043   -37719.135   -37186.659    258.54523     179281.5    56.922762    56.120916    56.120916 
  942000    459.31224   -37703.693   -37164.191    574.55896     179281.5    56.868689    56.147591    56.147591 
  943000    457.05541   -37707.626   -37170.775     439.3138     179281.5    56.812715    56.175244    56.175244 
  944000    464.19948   -37712.509   -37167.267    463.76747     179281.5     56.75506    56.203769    56.203769 
  945000     457.7927   -37706.812   -37169.095    528.80049     179281.5    56.695952    56.233059    56.233059 
  946000    462.11287   -37715.331   -37172.539    338.89063     179281.5    56.635625       56.263       56.263 
  947000    458.83391   -37708.419   -37169.479    351.38824     179281.5    56.574317    56.293478    56.293478 
  948000    452.86056   -37710.256   -37178.332    345.63761     179281.5    56.512269    56.324373    56.324373 
  949000    463.73876   -37716.775   -37172.074    416.60935     179281.5    56.449726    56.355566    56.355566 
  950000    457.49603   -37709.401   -37172.032    357.72408     179281.5    56.386935    56.386935    56.386935 
  951000    463.84522   -37714.732   -37169.905    327.41915     179281.5    56.324145    56.418357    56.418357 
  952000    458.46297   -37716.931   -37178.427    438.05424     179281.5    56.261602    56.449707    56.449707 
  953000    456.01789   -37707.804   -37172.171     443.4218     179281.5    56.199554     56.48086     56.48086 
  954000    465.29989   -37715.369   -37168.834    469.49216     179281.5    56.138245    56.511693    56.511693 
  955000    463.86447   -37708.028   -37163.179    770.14882     179281.5    56.077918    56.542082    56.542082 
  956000    458.61047   -37713.046   -37174.368    267.54975     179281.5    56.018811    56.571904    56.571904 
  957000    464.66796   -37709.623    -37163.83    486.07169     179281.5    55.961156    56.601038    56.601038 
  958000    462.84912   -37708.173   -37164.517     418.4755     179281.5    55.905182    56.629367    56.629367 
  959000    464.26201   -37701.199   -37155.883    639.53627     179281.5    55.851109    56.656773    56.656773 
  960000    452.01677   -37702.119   -37171.186    527.08685     179281.5     55.79915    56.683146    56.683146 
  961000    464.56227   -37703.062   -37157.393    770.95125     179281.5    55.749511    56.708375    56.708375 
  962000    455.08682   -37715.274   -37180.735    507.44783     179281.5    55.702388    56.732357    56.732357 
  963000    455.03708   -37701.313   -37166.832    308.17486     179281.5    55.657967    56.754992    56.754992 
  964000    452.86515   -37711.296   -37179.366    236.60683     179281.5    55.616422    56.776186    56.776186 
  965000    454.66641   -37707.698   -37173.653    412.22005     179281.5    55.577918    56.795849    56.795849 
  966000    453.43255   -37705.931   -37173.335    723.42593     179281.5    55.542607      56.8139      56.8139 
  967000    465.71909   -37697.819   -37150.791    725.76921     179281.5    55.510629    56.830263    56.830263 
  968000    462.87438   -37702.596    -37158.91    617.64256     179281.5    55.482108    56.844868    56.844868 
  969000    457.24584   -37693.226   -37156.151    1010.3016     179281.5    55.457159    56.857653    56.857653 
  970000    460.76986   -37707.738   -37166.524    623.40557     179281.5    55.435879    56.868565    56.868565 
  971000    460.56415   -37698.524   -37157.551    840.69636     179281.5    55.418352    56.877557    56.877557 
  972000    461.28044   -37699.322   -37157.508    823.14935     179281.5    55.404648    56.884591    56.884591 
  973000     459.7993   -37694.685   -37154.611    1113.6626     179281.5    55.394821    56.889636    56.889636 
  974000    459.32919   -37698.489   -37158.967    844.66797     179281.5    55.388909    56.892672    56.892672 
  975000    459.31119   -37696.906   -37157.405    624.84847     179281.5    55.386935    56.893686    56.893686 
  976000    450.59923    -37700.57   -37171.302    1019.0706     179281.5    55.388909    56.892672    56.892672 
  977000    464.83948   -37704.215    -37158.22    780.38857     179281.5    55.394821    56.889636    56.889636 
  978000    459.26636   -37704.116   -37164.668     765.9975     179281.5    55.404648    56.884591    56.884591 
  979000    457.80719   -37702.115   -37164.381    577.14673     179281.5    55.418352    56.877557    56.877557 
  980000    455.77593   -37706.927   -37171.579    753.51549     179281.5    55.435879    56.868565    56.868565 
  981000     460.6784   -37701.084   -37159.977    1001.9484     179281.5    55.457159    56.857653    56.857653 
  982000     461.3136   -37695.045   -37153.192    809.65228     179281.5    55.482108    56.844868    56.844868 
  983000    455.33496   -37703.074   -37168.243    646.43611     179281.5    55.510629    56.830263    56.830263 
  984000     461.3669   -37709.854   -37167.938    690.02673     179281.5    55.542607      56.8139      56.8139 
  985000    461.80953   -37704.304   -37161.869    608.32007     179281.5    55.577918    56.795849    56.795849 
  986000    460.26213   -37705.185   -37164.567    605.26049     179281.5    55.616422    56.776186    56.776186 
  987000    460.87719   -37712.309   -37170.969    353.55515     179281.5    55.657967    56.754992    56.754992 
  988000    457.29276   -37702.747   -37165.617    804.32703     179281.5    55.702388    56.732357    56.732357 
  989000    458.61216   -37695.509   -37156.829    981.73812     179281.5    55.749511    56.708375    56.708375 
  990000     458.9685   -37701.687   -37162.588    850.43107     179281.5     55.79915    56.683146    56.683146 
  991000    456.18823   -37710.643    -37174.81    441.04218     179281.5    55.851109    56.656773    56.656773 
  992000    463.48219   -37698.654   -37154.254    982.68389     179281.5    55.905182    56.629367    56.629367 
  993000    463.48033   -37716.722   -37172.324    338.35989     179281.5    55.961156    56.601038    56.601038 
  994000    460.13283   -37710.455   -37169.989    589.87381     179281.5    56.018811    56.571904    56.571904 
  995000    458.10925   -37711.963   -37173.874     532.0095     179281.5    56.077918    56.542082    56.542082 
  996000    458.00646   -37715.563   -37177.594    365.67262     179281.5    56.138245    56.511693    56.511693 
  997000     463.6001   -37714.852   -37170.313    183.97611     179281.5    56.199554     56.48086     56.48086 
  998000    458.08359   -37707.901   -37169.842    689.23213     179281.5    56.261602    56.449707    56.449707 
  999000    456.52707   -37711.315   -37175.084    453.72996     179281.5    56.324145    56.418357    56.418357 
 1000000    462.92713   -37712.029   -37168.281    682.18045     179281.5    56.386935    56.386935    56.386935 
Loop time of 470.059 on 48 procs for 1000000 steps with 9088 atoms

Performance: 1838.069 ns/day, 0.013 hours/ns, 2127.395 timesteps/s
99.3% CPU use with 48 MPI tasks x 1 OpenMP threads

MPI task timing breakdown:
Section |  min time  |  avg time  |  max time  |%varavg| %total
---------------------------------------------------------------
Pair    | 324.33     | 335.92     | 350.37     |  28.8 | 71.46
Neigh   | 17.828     | 19.356     | 21.329     |  18.5 |  4.12
Comm    | 63.327     | 75.004     | 89.544     |  58.5 | 15.96
Output  | 0.059363   | 0.06352    | 0.20359    |   8.1 |  0.01
Modify  | 31.589     | 34.024     | 37.223     |  30.0 |  7.24
Other   |            | 5.692      |            |       |  1.21

Nlocal:        189.333 ave         198 max         177 min
Histogram: 1 0 1 5 8 9 9 9 3 3
Nghost:        2098.06 ave        2119 max        2078 min
Histogram: 3 1 2 9 11 9 8 1 1 3
Neighs:        19953.5 ave       21391 max       18905 min
Histogram: 4 7 8 8 5 1 7 3 3 2

Total # of neighbors = 957769
Ave neighs/atom = 105.38831
Neighbor list builds = 120298
Dangerous builds = 0
write_restart rst.${T}
write_restart rst.460
System init for write_restart ...
clear
OMP_NUM_THREADS environment is not set. Defaulting to 1 thread. (../comm.cpp:94)
  using 1 OpenMP thread(s) per MPI task
package intel 1
jump dms480.lmp
#MD-DMS by Ha-Bin Yu
variable T equal 480
log log.${T}
log log.480
