ITEM: TIMESTEP
0
ITEM: NUMBER OF ATOMS
7200
ITEM: BOX BOUNDS xy xz yz pp pp pp
0.0000000000000000e+00 2.1900000000000000e+02 0.0000000000000000e+00
0.0000000000000000e+00 2.1900000000000000e+02 0.0000000000000000e+00
-3.6499999999999999e-01 3.6499999999999999e-01 0.0000000000000000e+00
ITEM: ATOMS id type x y z
1 1 71.9027 196.007 -5.55112e-17
2 1 96.0342 104.479 -5.55112e-17
3 1 28.7137 39.4907 -5.55112e-17
4 1 35.2349 94.8009 -5.55112e-17
5 1 60.6451 103.073 -5.55112e-17
6 1 126.504 190.014 -5.55112e-17
7 1 37.1547 218.275 -5.55112e-17
8 2 163.979 122.208 -5.55112e-17
9 1 186.032 187.796 -5.55112e-17
10 2 45.0076 165.324 -5.55112e-17
11 1 175.008 31.0409 -5.55112e-17
12 1 55.0227 103.595 -5.55112e-17
13 2 189.222 85.4794 -5.55112e-17
14 1 69.1005 90.2768 -5.55112e-17
15 1 8.12856 159.252 -5.55112e-17
16 2 73.1362 218.613 -5.55112e-17
17 1 95.3175 36.748 -5.55112e-17
18 2 89.2471 37.7509 -5.55112e-17
19 1 119.964 78.3784 -5.55112e-17
20 1 4.37305 103.382 -5.55112e-17
21 1 82.7131 218.865 -5.55112e-17
22 2 50.7678 154.394 -5.55112e-17
23 2 60.0272 28.7886 -5.55112e-17
24 1 164.442 129.538 -5.55112e-17
25 1 17.9313 216.314 -5.55112e-17
26 2 51.3032 114.07 -5.55112e-17
27 1 201.304 158.976 -5.55112e-17
28 2 71.1214 92.3698 -5.55112e-17
29 1 196.011 80.5287 -5.55112e-17
30 1 160.533 95.0722 -5.55112e-17
31 1 181.534 17.8696 -5.55112e-17
32 1 44.6003 8.55984 -5.55112e-17
33 1 15.0999 163.267 -5.55112e-17
34 1 42.5183 63.8669 -5.55112e-17
35 1 177.825 2.26002 -5.55112e-17
36 1 172.744 137.186 -5.55112e-17
37 2 128.457 131.439 -5.55112e-17
38 1 168.23 150.315 -5.55112e-17
39 1 132.211 154.264 -5.55112e-17
40 1 180.569 210.071 -5.55112e-17
41 1 140.983 53.1062 -5.55112e-17
42 1 30.9142 114.121 -5.55112e-17
43 1 158.363 27.9921 -5.55112e-17
44 1 148.063 53.0934 -5.55112e-17
45 1 196.188 67.939 -5.55112e-17
46 1 139.742 191.604 -5.55112e-17
47 1 55.5406 184.679 -5.55112e-17
48 2 195.482 195.409 -5.55112e-17
49 1 37.5073 17.0352 -5.55112e-17
50 1 78.3194 175.555 -5.55112e-17
51 1 114.013 45.945 -5.55112e-17
52 1 177.835 74.9054 -5.55112e-17
53 1 123.431 214.758 -5.55112e-17
54 1 128.798 136.305 -5.55112e-17
55 1 7.63093 183.672 -5.55112e-17
56 1 112.243 111.666 -5.55112e-17
57 2 99.1254 205.419 -5.55112e-17
58 1 34.2724 212.067 -5.55112e-17
59 1 146.4 42.7979 -5.55112e-17
60 2 191.241 121.453 -5.55112e-17
61 2 7.68482 164.077 -5.55112e-17
62 1 34.8117 117.335 -5.55112e-17
63 1 152.504 28.3886 -5.55112e-17
64 1 155.366 201.766 -5.55112e-17
65 1 156.902 160.727 -5.55112e-17
66 1 73.6119 90.8352 -5.55112e-17
67 1 172.915 133.898 -5.55112e-17
68 1 57.5928 208.528 -5.55112e-17
69 1 63.5997 191.887 -5.55112e-17
70 1 48.9982 62.6212 -5.55112e-17
71 1 175.26 210.095 -5.55112e-17
72 1 118.789 129.663 -5.55112e-17
73 1 105.885 142.408 -5.55112e-17
74 1 1.27267 209.835 -5.55112e-17
75 2 98.8968 36.2297 -5.55112e-17
76 1 90.3021 11.9388 -5.55112e-17
77 1 200.63 194.676 -5.55112e-17
78 1 63.7195 133.502 -5.55112e-17
79 2 165.565 34.8486 -5.55112e-17
80 1 59.5622 178.777 -5.55112e-17
81 1 120.272 136.925 -5.55112e-17
82 1 70.2647 191.437 -5.55112e-17
83 2 76.9951 196.649 -5.55112e-17
84 1 211.338 10.0689 -5.55112e-17
85 1 34.4182 145.66 -5.55112e-17
86 1 113.53 134.658 -5.55112e-17
87 1 86.2175 99.2586 -5.55112e-17
88 1 9.1229 171.577 -5.55112e-17
89 2 37.7004 24.5177 -5.55112e-17
90 2 13.8421 154.444 -5.55112e-17
91 1 175.044 25.0185 -5.55112e-17
92 2 141.799 209.236 -5.55112e-17
93 1 179.349 207.361 -5.55112e-17
94 2 74.648 36.3168 -5.55112e-17
95 1 217.394 37.0265 -5.55112e-17
96 1 207.949 131.382 -5.55112e-17
97 1 36.0763 213.931 -5.55112e-17
98 1 145.056 46.9175 -5.55112e-17
99 1 162.477 104.507 -5.55112e-17
100 1 121.426 210.859 -5.55112e-17
101 1 50.8375 26.1274 -5.55112e-17
102 1 8.63783 121.311 -5.55112e-17
103 1 141.192 198.714 -5.55112e-17
104 1 215.609 141.112 -5.55112e-17
105 1 90.4955 93.9016 -5.55112e-17
106 1 58.3586 78.4499 -5.55112e-17
107 2 177.959 31.7573 -5.55112e-17
108 1 126.236 21.9856 -5.55112e-17
109 1 169.596 104.822 -5.55112e-17
110 1 215.068 89.4555 -5.55112e-17
111 1 45.4359 4.36591 -5.55112e-17
112 1 72.9423 102.194 -5.55112e-17
113 1 132.267 16.3873 -5.55112e-17
114 1 170.969 208.203 -5.55112e-17
115 1 37.9813 189.826 -5.55112e-17
116 2 186.349 127.825 -5.55112e-17
117 1 178.597 199.494 -5.55112e-17
118 1 6.95676 7.07058 -5.55112e-17
119 2 100.15 80.5738 -5.55112e-17
120 1 11.9235 62.0927 -5.55112e-17
121 1 131.036 57.57 -5.55112e-17
122 1 81.5271 109.991 -5.55112e-17
123 1 146.74 145.105 -5.55112e-17
124 1 198.277 57.7679 -5.55112e-17
125 1 134.642 84.9104 -5.55112e-17
126 1 41.2492 48.0719 -5.55112e-17
127 1 28.328 71.2386 -5.55112e-17
128 1 179.73 169.405 -5.55112e-17
129 1 208.292 164.709 -5.55112e-17
130 1 104.096 88.7085 -5.55112e-17
131 1 10.7173 125.728 -5.55112e-17
132 2 23.3238 191.269 -5.55112e-17
133 1 103.347 141.753 -5.55112e-17
134 1 56.0354 24.7314 -5.55112e-17
135 1 175.705 166.94 -5.55112e-17
136 1 8.62659 149.706 -5.55112e-17
137 1 161.016 190.49 -5.55112e-17
138 1 64.1838 19.6891 -5.55112e-17
139 1 17.8452 125.419 -5.55112e-17
140 2 181.881 183.38 -5.55112e-17
141 1 141.789 108.8 -5.55112e-17
142 2 5.7948 26.4898 -5.55112e-17
143 1 53.7087 115.823 -5.55112e-17
144 2 66.4602 18.0566 -5.55112e-17
145 1 98.9133 52.2545 -5.55112e-17
146 1 180.229 33.3596 -5.55112e-17
147 1 159.691 183.801 -5.55112e-17
148 1 36.069 191.526 -5.55112e-17
149 1 36.9286 80.0705 -5.55112e-17
150 1 162.742 69.2203 -5.55112e-17
151 1 38.0144 129.186 -5.55112e-17
152 1 204.003 166.864 -5.55112e-17
153 2 26.0203 5.12447 -5.55112e-17
154 1 175.213 128.525 -5.55112e-17
155 1 152.842 177.744 -5.55112e-17
156 2 13.1787 179.383 -5.55112e-17
157 1 190.238 97.8786 -5.55112e-17
158 1 199.349 37.9744 -5.55112e-17
159 1 208.484 125.54 -5.55112e-17
160 1 44.1138 189.577 -5.55112e-17
161 1 218.583 17.484 -5.55112e-17
162 1 56.8706 143.65 -5.55112e-17
163 1 124.825 78.48 -5.55112e-17
164 1 152.845 118.794 -5.55112e-17
165 1 198.254 206.599 -5.55112e-17
166 2 144.621 34.385 -5.55112e-17
167 1 134.076 14.6782 -5.55112e-17
168 1 172.704 210.194 -5.55112e-17
169 1 188.436 120.872 -5.55112e-17
170 1 73.6556 16.7583 -5.55112e-17
171 1 200.79 100.201 -5.55112e-17
172 1 32.3971 57.0264 -5.55112e-17
173 1 15.2858 156.802 -5.55112e-17
174 1 78.9152 105.56 -5.55112e-17
175 2 152.509 170.142 -5.55112e-17
176 1 63.2034 165.097 -5.55112e-17
177 2 15.2071 133.22 -5.55112e-17
178 1 39.0375 210.791 -5.55112e-17
179 1 184.566 129.916 -5.55112e-17
180 1 202.587 24.5916 -5.55112e-17
181 1 9.01802 137.198 -5.55112e-17
182 2 197.21 15.9503 -5.55112e-17
183 1 83.9017 145.723 -5.55112e-17
184 1 160.493 6.50473 -5.55112e-17
185 2 118.521 193.856 -5.55112e-17
186 2 165.252 145.598 -5.55112e-17
187 1 118.438 53.2181 -5.55112e-17
188 1 96.0395 3.48757 -5.55112e-17
189 1 96.7598 210.323 -5.55112e-17
190 2 207.393 155.566 -5.55112e-17
191 1 110.794 51.4945 -5.55112e-17
192 2 173.995 102.266 -5.55112e-17
193 2 94.2188 169.662 -5.55112e-17
194 1 34.3795 125.805 -5.55112e-17
195 1 205.228 169.273 -5.55112e-17
196 1 13.4937 119.831 -5.55112e-17
197 1 34.4993 75.3496 -5.55112e-17
198 2 60.0358 71.2005 -5.55112e-17
199 1 188.764 60.2084 -5.55112e-17
200 1 67.9176 15.3484 -5.55112e-17
201 2 209.994 133.316 -5.55112e-17
202 1 173.617 215.166 -5.55112e-17
203 1 101.721 116.76 -5.55112e-17
204 1 157.588 152.83 -5.55112e-17
205 2 18.1992 85.7814 -5.55112e-17
206 1 134.172 131.385 -5.55112e-17
207 1 109.932 126.586 -5.55112e-17
208 1 49.2898 60.2381 -5.55112e-17
209 1 140.673 169.359 -5.55112e-17
210 1 193.35 108.222 -5.55112e-17
211 2 171.789 4.36179 -5.55112e-17
212 1 207.224 102.187 -5.55112e-17
213 1 143.831 74.2777 -5.55112e-17
214 1 104.616 74.108 -5.55112e-17
215 1 73.8368 177.776 -5.55112e-17
216 1 146.636 130.551 -5.55112e-17
217 1 114.605 120.892 -5.55112e-17
218 2 217.998 132.415 -5.55112e-17
219 1 76.0679 173.946 -5.55112e-17
220 2 102.396 119.539 -5.55112e-17
221 1 18.7091 133.31 -5.55112e-17
222 1 121.484 129.163 -5.55112e-17
223 1 71.3167 177.213 -5.55112e-17
224 2 4.68796 9.59792 -5.55112e-17
225 1 46.3034 70.233 -5.55112e-17
226 1 24.5231 173.571 -5.55112e-17
227 2 46.7506 198.712 -5.55112e-17
228 1 98.99 151.787 -5.55112e-17
229 1 218.478 118.345 -5.55112e-17
230 1 144.968 147.128 -5.55112e-17
231 1 172.93 91.497 -5.55112e-17
232 1 150.408 196.785 -5.55112e-17
233 1 57.8744 39.5247 -5.55112e-17
234 1 99.7661 11.0989 -5.55112e-17
235 1 164.005 44.2207 -5.55112e-17
236 1 20.3495 117.525 -5.55112e-17
237 1 29.7034 140.907 -5.55112e-17
238 1 137.226 120.273 -5.55112e-17
239 2 5.63213 181.649 -5.55112e-17
240 1 115.404 184.658 -5.55112e-17
241 2 101.835 177.047 -5.55112e-17
242 2 13.8848 204.162 -5.55112e-17
243 2 74.2161 32.1498 -5.55112e-17
244 1 56.4904 120.706 -5.55112e-17
245 1 74.7474 106.779 -5.55112e-17
246 1 135.734 151.77 -5.55112e-17
247 1 182.281 136.967 -5.55112e-17
248 1 132.245 37.0763 -5.55112e-17
249 1 8.88216 26.3557 -5.55112e-17
250 2 81.2933 88.5201 -5.55112e-17
251 1 92.3168 49.8739 -5.55112e-17
252 1 205.254 204.334 -5.55112e-17
253 1 126.507 81.0396 -5.55112e-17
254 2 107.868 188.776 -5.55112e-17
255 1 218.797 171.192 -5.55112e-17
256 1 95.8407 174.487 -5.55112e-17
257 1 209.485 175.811 -5.55112e-17
258 2 80.6639 50.5934 -5.55112e-17
259 1 210.539 143.922 -5.55112e-17
260 1 146.853 105.711 -5.55112e-17
261 1 180.316 147.972 -5.55112e-17
262 1 54.3108 60.4491 -5.55112e-17
263 1 9.9088 108.034 -5.55112e-17
264 1 189.876 165.874 -5.55112e-17
265 1 54.3272 23.1283 -5.55112e-17
266 1 177.018 55.9149 -5.55112e-17
267 1 137.48 99.848 -5.55112e-17
268 1 57.7617 47.3405 -5.55112e-17
269 1 71.4251 112.197 -5.55112e-17
270 1 131.774 76.143 -5.55112e-17
271 1 127.889 69.3928 -5.55112e-17
272 1 157.696 163.104 -5.55112e-17
273 1 77.6865 51.2686 -5.55112e-17
274 2 156.41 155.318 -5.55112e-17
275 1 53.9149 147.331 -5.55112e-17
276 2 200.397 201.676 -5.55112e-17
277 2 170.583 52.4191 -5.55112e-17
278 1 69.3127 187.196 -5.55112e-17
279 2 104.263 77.3272 -5.55112e-17
280 1 205.159 29.58 -5.55112e-17
281 1 101.533 182.552 -5.55112e-17
282 1 70.6856 155.833 -5.55112e-17
283 1 110.443 155.549 -5.55112e-17
284 1 152.992 21.634 -5.55112e-17
285 1 27.6655 204.36 -5.55112e-17
286 2 84.1597 197.567 -5.55112e-17
287 1 49.9374 52.9759 -5.55112e-17
288 1 211.542 92.3739 -5.55112e-17
289 1 108.13 91.5632 -5.55112e-17
290 1 44.5522 196.94 -5.55112e-17
291 1 103.337 139.186 -5.55112e-17
292 2 52.8467 207.535 -5.55112e-17
293 2 107.324 8.75746 -5.55112e-17
294 1 106.133 16.1973 -5.55112e-17
295 1 123.316 193.523 -5.55112e-17
296 1 140.308 28.6002 -5.55112e-17
297 1 172.951 162.319 -5.55112e-17
298 1 181.119 31.0233 -5.55112e-17
299 1 120.502 80.8016 -5.55112e-17
300 2 76.1414 143.115 -5.55112e-17
301 1 7.94934 34.2671 -5.55112e-17
302 1 86.0376 123.055 -5.55112e-17
303 2 86.3796 72.6352 -5.55112e-17
304 2 117.02 181.415 -5.55112e-17
305 1 86.361 91.1833 -5.55112e-17
306 1 89.8805 61.9012 -5.55112e-17
307 1 208.32 189.821 -5.55112e-17
308 1 78.5157 55.9784 -5.55112e-17
309 2 101.024 131.535 -5.55112e-17
310 1 189.048 70.4211 -5.55112e-17
311 1 34.4554 71.0458 -5.55112e-17
312 1 165.343 101.293 -5.55112e-17
313 2 148.304 13.6863 -5.55112e-17
314 1 116.718 82.6214 -5.55112e-17
315 1 101.298 151.454 -5.55112e-17
316 1 188.378 107.692 -5.55112e-17
317 1 48.2867 113.298 -5.55112e-17
318 1 98.5792 8.96094 -5.55112e-17
319 1 69.4971 196.916 -5.55112e-17
320 1 144.33 151.727 -5.55112e-17
321 1 20.7299 55.5931 -5.55112e-17
322 1 101.851 108.235 -5.55112e-17
323 1 198.223 193.978 -5.55112e-17
324 1 131.697 26.5973 -5.55112e-17
325 1 123.262 164.745 -5.55112e-17
326 1 65.5899 160.419 -5.55112e-17
327 2 93.2883 203.098 -5.55112e-17
328 1 171.639 44.8802 -5.55112e-17
329 2 0.666543 71.2537 -5.55112e-17
330 1 180.226 135.123 -5.55112e-17
331 1 175.678 36.0783 -5.55112e-17
332 2 141.107 63.524 -5.55112e-17
333 1 29.2335 42.4361 -5.55112e-17
334 1 107.006 44.9907 -5.55112e-17
335 1 206.987 191.743 -5.55112e-17
336 1 9.37219 69.0873 -5.55112e-17
337 1 168.87 213.012 -5.55112e-17
338 1 125.462 2.60641 -5.55112e-17
339 1 179.445 117.278 -5.55112e-17
340 1 169.72 69.5879 -5.55112e-17
341 1 106.042 23.255 -5.55112e-17
342 1 183.898 172.723 -5.55112e-17
343 1 134.317 87.316 -5.55112e-17
344 1 62.6431 47.6869 -5.55112e-17
345 1 47.9324 201.155 -5.55112e-17
346 1 3.72672 113.399 -5.55112e-17
347 1 57.0471 60.0314 -5.55112e-17
348 1 114.175 216.915 -5.55112e-17
349 1 93.5835 103.689 -5.55112e-17
350 2 85.6871 81.5396 -5.55112e-17
351 1 174.964 11.1344 -5.55112e-17
352 1 193.362 145.033 -5.55112e-17
353 1 34.1502 2.95693 -5.55112e-17
354 1 194.72 165.134 -5.55112e-17
355 1 101.057 112.714 -5.55112e-17
356 1 163.879 214.9 -5.55112e-17
357 1 10.0494 165.724 -5.55112e-17
358 1 200.953 185.336 -5.55112e-17
359 1 182.501 193.478 -5.55112e-17
360 1 53.5906 92.8102 -5.55112e-17
361 1 103.768 13.2096 -5.55112e-17
362 1 31.0504 13.2541 -5.55112e-17
363 1 190.954 130.701 -5.55112e-17
364 2 16.344 64.8961 -5.55112e-17
365 1 167.129 116.338 -5.55112e-17
366 1 120.285 151.005 -5.55112e-17
367 1 22.7805 78.6241 -5.55112e-17
368 1 203.515 79.7448 -5.55112e-17
369 2 92.1694 178.893 -5.55112e-17
370 1 47.4285 215.747 -5.55112e-17
371 1 61.4585 143.879 -5.55112e-17
372 2 193.074 63.4517 -5.55112e-17
373 2 143.245 1.76411 -5.55112e-17
374 1 133.885 31.6394 -5.55112e-17
375 1 165.684 133.524 -5.55112e-17
376 1 64.8536 167.282 -5.55112e-17
377 1 196.475 101.586 -5.55112e-17
378 1 65.0598 149.706 -5.55112e-17
379 1 201.138 43.7787 -5.55112e-17
380 1 149.994 147.285 -5.55112e-17
381 1 12.8319 186.04 -5.55112e-17
382 1 57.0047 80.8468 -5.55112e-17
383 1 51.8824 61.2907 -5.55112e-17
384 1 33.4852 13.4787 -5.55112e-17
385 1 151.923 56.4875 -5.55112e-17
386 2 64.1788 8.77745 -5.55112e-17
387 1 184.16 16.4695 -5.55112e-17
388 1 53.8848 105.823 -5.55112e-17
389 1 125.478 192.342 -5.55112e-17
390 2 185.351 136.886 -5.55112e-17
391 2 24.8633 185.602 -5.55112e-17
392 1 108.384 194.949 -5.55112e-17
393 1 58.7491 117.2 -5.55112e-17
394 1 99.4923 118.085 -5.55112e-17
395 1 10.2892 15.5855 -5.55112e-17
396 1 168.113 145.365 -5.55112e-17
397 1 139.101 85.5136 -5.55112e-17
398 1 188.672 151.413 -5.55112e-17
399 1 197.904 55.0876 -5.55112e-17
400 1 80.7744 98.8638 -5.55112e-17
401 1 75.9326 3.44601 -5.55112e-17
402 2 36.204 134.417 -5.55112e-17
403 1 173.868 207.977 -5.55112e-17
404 1 10.628 64.3377 -5.55112e-17
405 1 207.978 135.526 -5.55112e-17
406 1 149.434 59.0828 -5.55112e-17
407 2 19.2158 38.7369 -5.55112e-17
408 1 16.059 217.868 -5.55112e-17
409 1 26.3851 95.6956 -5.55112e-17
410 1 80.4357 0.890457 -5.55112e-17
411 1 178.283 162.449 -5.55112e-17
412 1 69.6952 73.285 -5.55112e-17
413 1 31.755 79.9287 -5.55112e-17
414 1 215.347 47.158 -5.55112e-17
415 1 179.217 181.354 -5.55112e-17
416 1 33.6246 34.1136 -5.55112e-17
417 1 163.67 89.8301 -5.55112e-17
418 2 193.659 187.805 -5.55112e-17
419 1 132.891 161.111 -5.55112e-17
420 2 172.25 94.313 -5.55112e-17
421 1 203.864 120.64 -5.55112e-17
422 1 96.7568 43.6374 -5.55112e-17
423 2 179.244 202.257 -5.55112e-17
424 1 82.9255 191.326 -5.55112e-17
425 1 150.194 203.687 -5.55112e-17
426 1 142.029 164.716 -5.55112e-17
427 1 139.726 83.1323 -5.55112e-17
428 1 77.7656 122.496 -5.55112e-17
429 1 183.651 156.876 -5.55112e-17
430 1 190.252 12.3014 -5.55112e-17
431 1 142.926 170.375 -5.55112e-17
432 1 124.928 5.66074 -5.55112e-17
433 1 92.2701 155.516 -5.55112e-17
434 1 42.8285 66.4427 -5.55112e-17
435 1 124.112 117.587 -5.55112e-17
436 1 98.243 208.183 -5.55112e-17
437 1 197.093 141.99 -5.55112e-17
438 2 120.93 58.0763 -5.55112e-17
439 1 100.434 85.9301 -5.55112e-17
440 1 144.411 84.0122 -5.55112e-17
441 1 192.457 160.736 -5.55112e-17
442 1 110.684 190.412 -5.55112e-17
443 1 204.661 52.4838 -5.55112e-17
444 1 148.841 43.4328 -5.55112e-17
445 1 102.022 40.1721 -5.55112e-17
446 1 189.073 118.463 -5.55112e-17
447 1 61.5501 20.8469 -5.55112e-17
448 1 110.328 39.9449 -5.55112e-17
449 1 128.484 151.993 -5.55112e-17
450 1 181.082 214.846 -5.55112e-17
451 1 160.64 218.192 -5.55112e-17
452 1 112.302 152.206 -5.55112e-17
453 1 182.002 142.944 -5.55112e-17
454 1 215.474 215.341 -5.55112e-17
455 1 148.562 37.8909 -5.55112e-17
456 1 188.723 174.101 -5.55112e-17
457 1 174.005 83.3677 -5.55112e-17
458 1 147.52 169.272 -5.55112e-17
459 1 29.2113 213.542 -5.55112e-17
460 1 147.981 100.316 -5.55112e-17
461 1 174.033 160.112 -5.55112e-17
462 1 25.4042 130.881 -5.55112e-17
463 1 156.411 43.1131 -5.55112e-17
464 1 130.752 11.3952 -5.55112e-17
465 1 170.618 146.085 -5.55112e-17
466 1 59.4937 84.7963 -5.55112e-17
467 1 63.6922 22.1603 -5.55112e-17
468 1 179.781 164.637 -5.55112e-17
469 1 70.1959 75.7954 -5.55112e-17
470 1 75.5148 29.6078 -5.55112e-17
471 1 146.373 192.076 -5.55112e-17
472 1 27.5919 18.2863 -5.55112e-17
473 1 100.327 92.2237 -5.55112e-17
474 1 95.5946 145.892 -5.55112e-17
475 1 80.8828 151.838 -5.55112e-17
476 2 1.12028 215.153 -5.55112e-17
477 1 155.074 50.3331 -5.55112e-17
478 1 207.685 158.413 -5.55112e-17
479 1 186.353 173.586 -5.55112e-17
480 1 38.8576 1.28262 -5.55112e-17
481 1 86.2355 144.341 -5.55112e-17
482 1 154.998 152.781 -5.55112e-17
483 1 96.7808 138.222 -5.55112e-17
484 2 70.618 45.6004 -5.55112e-17
485 1 37.2966 209.081 -5.55112e-17
486 1 41.541 20.6498 -5.55112e-17
487 1 73.0586 190.817 -5.55112e-17
488 1 48.679 76.7133 -5.55112e-17
489 1 143.283 102.112 -5.55112e-17
490 1 7.03056 210.847 -5.55112e-17
491 1 157.173 82.6019 -5.55112e-17
492 1 33.6107 148.105 -5.55112e-17
493 1 126.76 173.709 -5.55112e-17
494 1 149.909 168.171 -5.55112e-17
495 1 107.915 200.105 -5.55112e-17
496 2 98.3475 199.15 -5.55112e-17
497 1 202.476 61.9579 -5.55112e-17
498 1 93.9337 141.68 -5.55112e-17
499 2 116.323 210.23 -5.55112e-17
500 1 147.874 204.257 -5.55112e-17
501 2 156.608 213.755 -5.55112e-17
502 2 132.522 149.564 -5.55112e-17
503 1 134.165 180.603 -5.55112e-17
504 1 133.073 117.096 -5.55112e-17
505 1 213.288 17.0474 -5.55112e-17
506 1 66.0401 129.215 -5.55112e-17
507 1 95.3131 101.902 -5.55112e-17
508 1 139.793 18.869 -5.55112e-17
509 2 19.2478 49.9141 -5.55112e-17
510 2 136.867 159.88 -5.55112e-17
511 1 124.079 124.55 -5.55112e-17
512 2 40.4571 57.6422 -5.55112e-17
513 1 58.9115 181.265 -5.55112e-17
514 1 52.5609 69.3153 -5.55112e-17
515 1 23.0145 217.398 -5.55112e-17
516 1 31.3622 172.051 -5.55112e-17
517 1 142.775 121.138 -5.55112e-17
518 2 84.1725 77.9714 -5.55112e-17
519 1 206.708 70.8065 -5.55112e-17
520 2 21.9624 67.6573 -5.55112e-17
521 1 206.753 133.309 -5.55112e-17
522 1 46.6241 218.487 -5.55112e-17
523 1 195.553 140.17 -5.55112e-17
524 1 54.3861 33.1063 -5.55112e-17
525 1 58.6543 193.729 -5.55112e-17
526 1 150.245 35.6846 -5.55112e-17
527 1 56.6788 211.049 -5.55112e-17
528 1 136.907 10.8963 -5.55112e-17
529 1 35.75 157.282 -5.55112e-17
530 1 158.373 94.7359 -5.55112e-17
531 1 63.6761 145.411 -5.55112e-17
532 1 151.389 214.074 -5.55112e-17
533 1 84.0386 138.147 -5.55112e-17
534 1 107.277 154.476 -5.55112e-17
535 1 171.099 141.232 -5.55112e-17
536 1 167.457 50.2649 -5.55112e-17
537 1 156.796 187.662 -5.55112e-17
538 1 130.726 78.5106 -5.55112e-17
539 1 86.7819 32.9976 -5.55112e-17
540 1 147.598 70.381 -5.55112e-17
541 1 81.8927 179.486 -5.55112e-17
542 1 100.947 62.7964 -5.55112e-17
543 1 83.9424 177.876 -5.55112e-17
544 1 131.217 192.995 -5.55112e-17
545 1 208.751 172.847 -5.55112e-17
546 1 204.786 15.5786 -5.55112e-17
547 1 205.927 126.958 -5.55112e-17
548 1 45.527 148.815 -5.55112e-17
549 1 2.21229 66.2468 -5.55112e-17
550 2 25.4742 154.255 -5.55112e-17
551 2 133.362 111.987 -5.55112e-17
552 2 141.587 212.445 -5.55112e-17
553 1 196.612 31.2603 -5.55112e-17
554 1 199.235 90.2017 -5.55112e-17
555 2 191.82 95.3921 -5.55112e-17
556 1 127.534 4.70504 -5.55112e-17
557 1 94.5611 66.8111 -5.55112e-17
558 1 151.708 175.405 -5.55112e-17
559 1 190.42 3.09098 -5.55112e-17
560 1 114.586 78.0566 -5.55112e-17
561 1 176.95 174.363 -5.55112e-17
562 1 161.577 160.035 -5.55112e-17
563 2 181.152 161.99 -5.55112e-17
564 1 211.557 200.242 -5.55112e-17
565 1 111.534 182.399 -5.55112e-17
566 1 85.5717 84.7934 -5.55112e-17
567 1 182.999 72.7303 -5.55112e-17
568 1 52.8065 174.991 -5.55112e-17
569 1 45.0649 140.57 -5.55112e-17
570 1 59.8209 139.884 -5.55112e-17
571 1 192.891 176.251 -5.55112e-17
572 1 155.124 80.5039 -5.55112e-17
573 1 173.461 112.309 -5.55112e-17
574 1 154.237 136.374 -5.55112e-17
575 1 199.27 105.63 -5.55112e-17
576 1 194.74 127.432 -5.55112e-17
577 1 147.77 189.799 -5.55112e-17
578 1 137.431 162.714 -5.55112e-17
579 1 2.42734 34.5339 -5.55112e-17
580 1 139.029 32.9425 -5.55112e-17
581 1 180.218 123.173 -5.55112e-17
582 1 200.128 17.011 -5.55112e-17
583 1 195.942 215.843 -5.55112e-17
584 2 1.89892 194.117 -5.55112e-17
585 1 8.32595 87.3607 -5.55112e-17
586 1 116.426 1.95034 -5.55112e-17
587 1 186.061 64.4213 -5.55112e-17
588 1 63.4524 92.958 -5.55112e-17
589 1 105.07 214.186 -5.55112e-17
590 1 55.9183 1.70895 -5.55112e-17
591 1 28.5397 172.114 -5.55112e-17
592 1 21.7168 119.921 -5.55112e-17
593 1 185.546 164.199 -5.55112e-17
594 1 49.1219 181.876 -5.55112e-17
595 1 108.188 101.657 -5.55112e-17
596 1 141.302 33.7413 -5.55112e-17
597 2 202.088 29.5719 -5.55112e-17
598 1 192.979 3.83592 -5.55112e-17
599 1 209.889 20.317 -5.55112e-17
600 1 181.86 12.9593 -5.55112e-17
601 1 54.4369 164.744 -5.55112e-17
602 1 123.474 212.283 -5.55112e-17
603 1 59.0075 171.001 -5.55112e-17
604 1 70.4223 168.243 -5.55112e-17
605 2 96.8321 125.271 -5.55112e-17
606 1 142.183 162.265 -5.55112e-17
607 2 158.859 158.118 -5.55112e-17
608 1 143.529 149.378 -5.55112e-17
609 1 30.9569 165.334 -5.55112e-17
610 1 168.159 167.148 -5.55112e-17
611 1 81.1961 149.119 -5.55112e-17
612 1 20.0389 74.8508 -5.55112e-17
613 1 171.066 122.528 -5.55112e-17
614 2 1.94184 168.948 -5.55112e-17
615 1 59.2442 200.408 -5.55112e-17
616 1 168.319 96.8893 -5.55112e-17
617 1 97.4982 187.173 -5.55112e-17
618 1 170.369 187.138 -5.55112e-17
619 1 107.284 147.663 -5.55112e-17
620 1 138.673 14.0568 -5.55112e-17
621 1 128.68 119.087 -5.55112e-17
622 1 89.1219 178.873 -5.55112e-17
623 1 198.522 171.524 -5.55112e-17
624 1 2.50463 7.63995 -5.55112e-17
625 1 144.003 64.4573 -5.55112e-17
626 1 74.1779 13.8469 -5.55112e-17
627 1 92.603 101.255 -5.55112e-17
628 1 80.0112 18.025 -5.55112e-17
629 1 61.0718 146.529 -5.55112e-17
630 2 117.698 5.51909 -5.55112e-17
631 1 29.9069 101.415 -5.55112e-17
632 1 65.0857 109.08 -5.55112e-17
633 1 28.6326 199.674 -5.55112e-17
634 1 143.713 54.1511 -5.55112e-17
635 1 106.939 164.605 -5.55112e-17
636 1 157.959 69.9541 -5.55112e-17
637 1 207.994 29.1154 -5.55112e-17
638 1 206.032 39.9427 -5.55112e-17
639 2 52.405 66.2563 -5.55112e-17
640 1 159.357 155.251 -5.55112e-17
641 1 4.91777 98.5216 -5.55112e-17
642 1 169.825 16.9699 -5.55112e-17
643 2 174.774 69.0158 -5.55112e-17
644 1 77.0162 23.6212 -5.55112e-17
645 1 104.393 175.853 -5.55112e-17
646 2 12.2257 141.756 -5.55112e-17
647 1 123.804 13.9607 -5.55112e-17
648 1 185.2 73.9189 -5.55112e-17
649 2 43.4196 126.451 -5.55112e-17
650 1 213.193 140.115 -5.55112e-17
651 1 19.1783 190.375 -5.55112e-17
652 1 189.136 178.279 -5.55112e-17
653 1 188.122 4.8551 -5.55112e-17
654 1 172.061 26.9052 -5.55112e-17
655 2 29.6754 157.506 -5.55112e-17
656 1 43.1843 191.932 -5.55112e-17
657 2 124.711 202.771 -5.55112e-17
658 1 191.394 68.6717 -5.55112e-17
659 2 188.793 168.717 -5.55112e-17
660 1 70.5757 25.4757 -5.55112e-17
661 1 50.1914 132.866 -5.55112e-17
662 1 29.0336 37.0719 -5.55112e-17
663 1 77.3724 17.4119 -5.55112e-17
664 1 118.285 75.567 -5.55112e-17
665 1 153.586 64.1794 -5.55112e-17
666 2 123.511 23.4606 -5.55112e-17
667 1 139.208 65.4866 -5.55112e-17
668 2 151.689 106.731 -5.55112e-17
669 1 109.747 74.0211 -5.55112e-17
670 1 172.084 198.579 -5.55112e-17
671 2 52.2781 137.45 -5.55112e-17
672 1 113.711 29.5673 -5.55112e-17
673 1 6.95195 52.5286 -5.55112e-17
674 1 1.09807 142.45 -5.55112e-17
675 1 138.906 49.5825 -5.55112e-17
676 1 116.198 149.486 -5.55112e-17
677 1 128.64 200.091 -5.55112e-17
678 1 81.3096 10.5658 -5.55112e-17
679 2 151.546 182.357 -5.55112e-17
680 1 24.2025 39.2755 -5.55112e-17
681 2 157.818 203.628 -5.55112e-17
682 1 210.728 7.51206 -5.55112e-17
683 1 46.0603 211.388 -5.55112e-17
684 1 134.529 196.074 -5.55112e-17
685 1 152.821 36.4613 -5.55112e-17
686 1 77.1052 75.0353 -5.55112e-17
687 1 168.305 215.525 -5.55112e-17
688 1 14.9839 112.753 -5.55112e-17
689 2 70.0289 17.2303 -5.55112e-17
690 1 97.2376 18.2404 -5.55112e-17
691 1 43.1513 27.304 -5.55112e-17
692 1 116.442 135.019 -5.55112e-17
693 1 118.763 2.90861 -5.55112e-17
694 1 55.6505 159.677 -5.55112e-17
695 1 23.5351 95.1248 -5.55112e-17
696 1 128.41 106.505 -5.55112e-17
697 1 98.1649 212.951 -5.55112e-17
698 1 132.028 85.4548 -5.55112e-17
699 1 217.623 129.543 -5.55112e-17
700 1 36.3643 32.4233 -5.55112e-17
701 1 218.628 85.2089 -5.55112e-17
702 1 31.0779 40.5874 -5.55112e-17
703 2 26.681 161.881 -5.55112e-17
704 1 95.279 198.774 -5.55112e-17
705 2 137.607 115.198 -5.55112e-17
706 1 73.6648 142.21 -5.55112e-17
707 1 110.361 9.80419 -5.55112e-17
708 1 54.6672 133.565 -5.55112e-17
709 1 199.326 198.816 -5.55112e-17
710 1 25.6754 136.604 -5.55112e-17
711 1 97.4366 165.242 -5.55112e-17
712 1 208.269 145.386 -5.55112e-17
713 1 139.912 163.471 -5.55112e-17
714 1 142.414 36.7282 -5.55112e-17
715 1 212.279 12.7412 -5.55112e-17
716 1 85.3258 135.883 -5.55112e-17
717 1 199.136 125.538 -5.55112e-17
718 1 198.544 150.802 -5.55112e-17
719 2 59.2556 42.0845 -5.55112e-17
720 1 130.379 68.3435 -5.55112e-17
721 1 149.488 33.349 -5.55112e-17
722 1 111.944 94.9742 -5.55112e-17
723 2 212 111.345 -5.55112e-17
724 1 37.909 3.97597 -5.55112e-17
725 1 36.7512 43.4897 -5.55112e-17
726 1 109.187 76.3834 -5.55112e-17
727 1 202.537 169.004 -5.55112e-17
728 2 17.9674 128.386 -5.55112e-17
729 1 121.131 194.837 -5.55112e-17
730 1 64.3016 162.697 -5.55112e-17
731 1 80.8717 201.359 -5.55112e-17
732 1 40.567 23.4606 -5.55112e-17
733 1 45.7716 34.3336 -5.55112e-17
734 1 112.575 24.5952 -5.55112e-17
735 1 59.032 55.1209 -5.55112e-17
736 2 11.3425 67.1477 -5.55112e-17
737 1 157.552 90.1851 -5.55112e-17
738 1 22.188 184.174 -5.55112e-17
739 1 115.595 194.905 -5.55112e-17
740 1 48.1548 126.179 -5.55112e-17
741 2 200.801 40.8078 -5.55112e-17
742 1 76.3834 62.5195 -5.55112e-17
743 1 137.058 83.7145 -5.55112e-17
744 2 198.331 158.684 -5.55112e-17
745 1 130.002 3.48057 -5.55112e-17
746 1 39.9484 218.015 -5.55112e-17
747 2 8.06023 55.4067 -5.55112e-17
748 1 121.301 28.2264 -5.55112e-17
749 1 25.0878 204.265 -5.55112e-17
750 1 19.3515 187.837 -5.55112e-17
751 1 92.2109 71.5586 -5.55112e-17
752 1 144.466 214.709 -5.55112e-17
753 1 116.915 160.427 -5.55112e-17
754 1 214.018 206.705 -5.55112e-17
755 1 129.547 186.583 -5.55112e-17
756 2 137.23 215.81 -5.55112e-17
757 1 212.589 181.622 -5.55112e-17
758 1 40.3411 158.383 -5.55112e-17
759 1 76.978 148.206 -5.55112e-17
760 1 185.782 111.77 -5.55112e-17
761 1 90.9993 14.3408 -5.55112e-17
762 1 201.102 66.4395 -5.55112e-17
763 1 84.4017 106.029 -5.55112e-17
764 2 107.608 144.638 -5.55112e-17
765 1 35.7026 63.7948 -5.55112e-17
766 1 96.8053 23.427 -5.55112e-17
767 1 58.0808 44.9593 -5.55112e-17
768 1 156.774 192.359 -5.55112e-17
769 1 40.1067 92.4941 -5.55112e-17
770 2 48.8389 73.5058 -5.55112e-17
771 1 149.172 165.885 -5.55112e-17
772 1 106.98 99.2616 -5.55112e-17
773 1 92.3234 167.142 -5.55112e-17
774 1 163.997 159.775 -5.55112e-17
775 1 158.473 44.1531 -5.55112e-17
776 1 84.1572 9.38702 -5.55112e-17
777 1 195.568 192.445 -5.55112e-17
778 1 5.64122 197.636 -5.55112e-17
779 1 179.429 186.118 -5.55112e-17
780 1 201.525 143.392 -5.55112e-17
781 1 37.9657 113.878 -5.55112e-17
782 1 188.468 65.579 -5.55112e-17
783 1 134.387 210.955 -5.55112e-17
784 2 216.005 93.986 -5.55112e-17
785 1 113.106 195.755 -5.55112e-17
786 1 95.0339 148.761 -5.55112e-17
787 1 200.543 214.886 -5.55112e-17
788 1 172.212 64.1297 -5.55112e-17
789 2 217.573 113.245 -5.55112e-17
790 1 70.7553 42.7327 -5.55112e-17
791 2 173.787 131.108 -5.55112e-17
792 2 218.975 39.8246 -5.55112e-17
793 2 132.518 80.457 -5.55112e-17
794 1 65.6623 14.5054 -5.55112e-17
795 1 174.947 66.0454 -5.55112e-17
796 1 59.1371 7.48013 -5.55112e-17
797 1 123.2 127.249 -5.55112e-17
798 2 19.8551 218.353 -5.55112e-17
799 2 32.5377 68.5509 -5.55112e-17
800 2 113.8 0.94216 -5.55112e-17
801 1 53.2325 118.605 -5.55112e-17
802 1 34.8579 52.4962 -5.55112e-17
803 1 173.414 71.8821 -5.55112e-17
804 2 131.535 94.4972 -5.55112e-17
805 1 38.1263 107.474 -5.55112e-17
806 1 43.5173 132.187 -5.55112e-17
807 2 116.319 15.8316 -5.55112e-17
808 1 12.8417 99.9672 -5.55112e-17
809 2 152.761 69.2781 -5.55112e-17
810 1 136.069 22.2154 -5.55112e-17
811 1 23.4863 16.63 -5.55112e-17
812 1 140.166 1.2139 -5.55112e-17
813 2 122.076 139.6 -5.55112e-17
814 1 105.387 114.466 -5.55112e-17
815 1 109.097 168.78 -5.55112e-17
816 1 38.6675 38.4186 -5.55112e-17
817 1 150.167 177.471 -5.55112e-17
818 1 83.8192 185.196 -5.55112e-17
819 1 87.3986 151.551 -5.55112e-17
820 1 178.331 141.374 -5.55112e-17
821 1 57.8043 130.178 -5.55112e-17
822 2 7.88092 195.159 -5.55112e-17
823 2 42.6308 98.5317 -5.55112e-17
824 1 95.9329 63.0855 -5.55112e-17
825 1 16.6383 204.386 -5.55112e-17
826 1 19.3117 175.367 -5.55112e-17
827 1 191.477 183.309 -5.55112e-17
828 1 196.255 133.387 -5.55112e-17
829 1 2.52956 11.5213 -5.55112e-17
830 1 38.4204 73.1369 -5.55112e-17
831 1 211.33 216.333 -5.55112e-17
832 1 6.40461 82.7323 -5.55112e-17
833 1 25.3568 11.6777 -5.55112e-17
834 1 68.3612 189.828 -5.55112e-17
835 1 206.135 211.33 -5.55112e-17
836 1 214.287 109.394 -5.55112e-17
837 1 19.2794 72.4821 -5.55112e-17
838 1 210.811 33.8344 -5.55112e-17
839 2 170.102 135.656 -5.55112e-17
840 1 99.3929 90.2438 -5.55112e-17
841 2 93.3374 217.805 -5.55112e-17
842 1 5.673 217.853 -5.55112e-17
843 2 152.666 147.793 -5.55112e-17
844 1 40.8313 199.492 -5.55112e-17
845 1 55.8726 154.49 -5.55112e-17
846 1 140.105 8.20505 -5.55112e-17
847 1 48.1774 155.211 -5.55112e-17
848 1 126.984 63.7275 -5.55112e-17
849 1 168.89 130.711 -5.55112e-17
850 1 81.2995 185.278 -5.55112e-17
851 1 79.0114 22.2375 -5.55112e-17
852 1 51.0174 159.652 -5.55112e-17
853 1 99.706 126.178 -5.55112e-17
854 1 61.5756 105.791 -5.55112e-17
855 1 149.039 84.5287 -5.55112e-17
856 1 112.34 127.143 -5.55112e-17