ITEM: TIMESTEP
0
ITEM: NUMBER OF ATOMS
7200
ITEM: BOX BOUNDS xy xz yz pp pp pp
0.0000000000000000e+00 2.1900000000000000e+02 0.0000000000000000e+00
0.0000000000000000e+00 2.1900000000000000e+02 0.0000000000000000e+00
-3.6499999999999999e-01 3.6499999999999999e-01 0.0000000000000000e+00
ITEM: ATOMS id type x y z
1 1 82.1977 214.652 -5.55112e-17
2 1 113.122 80.4252 -5.55112e-17
3 1 14.5477 30.3768 -5.55112e-17
4 1 67.1318 105.432 -5.55112e-17
5 1 83.4438 146.031 -5.55112e-17
6 1 145.683 162.38 -5.55112e-17
7 1 189.669 20.4991 -5.55112e-17
8 2 186.924 121.129 -5.55112e-17
9 1 184.123 194.087 -5.55112e-17
10 2 71.5625 195.991 -5.55112e-17
11 1 144.34 44.6785 -5.55112e-17
12 1 127.893 73.9727 -5.55112e-17
13 2 9.32424 51.3913 -5.55112e-17
14 1 89.7123 92.7408 -5.55112e-17
15 1 182.622 107.968 -5.55112e-17
16 2 88.4514 3.24119 -5.55112e-17
17 1 114.027 25.2432 -5.55112e-17
18 2 85.1395 59.3211 -5.55112e-17
19 1 122.339 97.8395 -5.55112e-17
20 1 211.846 107.643 -5.55112e-17
21 1 123.658 209.95 -5.55112e-17
22 2 36.0476 183.598 -5.55112e-17
23 2 73.0384 52.469 -5.55112e-17
24 1 162.17 120.803 -5.55112e-17
25 1 40.7368 174.505 -5.55112e-17
26 2 97.0306 115.641 -5.55112e-17
27 1 194.306 174.34 -5.55112e-17
28 2 70.5931 169.869 -5.55112e-17
29 1 5.70572 89.8029 -5.55112e-17
30 1 154.6 65.4526 -5.55112e-17
31 1 172.118 46.3382 -5.55112e-17
32 1 59.3013 203.23 -5.55112e-17
33 1 209.251 180.262 -5.55112e-17
34 1 49.8565 35.6066 -5.55112e-17
35 1 155.194 5.68847 -5.55112e-17
36 1 197.929 142.785 -5.55112e-17
37 2 125.192 120.461 -5.55112e-17
38 1 126.887 117.856 -5.55112e-17
39 1 125.984 144.535 -5.55112e-17
40 1 175.711 200.241 -5.55112e-17
41 1 76.576 26.5326 -5.55112e-17
42 1 64.0712 76.7525 -5.55112e-17
43 1 168.588 53.114 -5.55112e-17
44 1 144.345 100.067 -5.55112e-17
45 1 215.014 52.236 -5.55112e-17
46 1 109.139 178.316 -5.55112e-17
47 1 39.8094 181.248 -5.55112e-17
48 2 8.80052 31.9018 -5.55112e-17
49 1 20.5751 64.4301 -5.55112e-17
50 1 61.0401 177.391 -5.55112e-17
51 1 104.487 57.1529 -5.55112e-17
52 1 196.844 92.1927 -5.55112e-17
53 1 98.0115 206.767 -5.55112e-17
54 1 193.289 89.5465 -5.55112e-17
55 1 1.90665 201.819 -5.55112e-17
56 1 118.33 144.876 -5.55112e-17
57 2 130.848 173.3 -5.55112e-17
58 1 3.4133 206.851 -5.55112e-17
59 1 164.631 69.1493 -5.55112e-17
60 2 190.102 100.863 -5.55112e-17
61 2 27.6531 159.138 -5.55112e-17
62 1 29.1301 94.3893 -5.55112e-17
63 1 84.5637 31.3635 -5.55112e-17
64 1 155.294 201.751 -5.55112e-17
65 1 183.535 143.557 -5.55112e-17
66 1 101.866 102.907 -5.55112e-17
67 1 201.861 152.836 -5.55112e-17
68 1 63.0859 214.863 -5.55112e-17
69 1 102.36 185.043 -5.55112e-17
70 1 38.5971 81.1268 -5.55112e-17
71 1 132.779 196.368 -5.55112e-17
72 1 140.851 108.855 -5.55112e-17
73 1 159.448 146.695 -5.55112e-17
74 1 179.713 203.378 -5.55112e-17
75 2 108.909 10.5632 -5.55112e-17
76 1 183.977 35.5842 -5.55112e-17
77 1 207.374 192.307 -5.55112e-17
78 1 70.0224 198.514 -5.55112e-17
79 2 133.532 86.4045 -5.55112e-17
80 1 62.8389 175.534 -5.55112e-17
81 1 146.112 126.278 -5.55112e-17
82 1 89.5519 202.291 -5.55112e-17
83 2 109.802 175.685 -5.55112e-17
84 1 17.1182 13.2872 -5.55112e-17
85 1 36.0476 147.976 -5.55112e-17
86 1 100.512 144.621 -5.55112e-17
87 1 52.0246 55.8699 -5.55112e-17
88 1 200.702 5.95702 -5.55112e-17
89 2 44.1632 14.2436 -5.55112e-17
90 2 14.5555 167.741 -5.55112e-17
91 1 185.727 30.1061 -5.55112e-17
92 2 156.256 216.566 -5.55112e-17
93 1 149.962 200.032 -5.55112e-17
94 2 153.612 21.2406 -5.55112e-17
95 1 21.5553 29.1644 -5.55112e-17
96 1 187.819 113.235 -5.55112e-17
97 1 207.773 207.21 -5.55112e-17
98 1 120.569 67.6345 -5.55112e-17
99 1 155.713 72.1222 -5.55112e-17
100 1 122.353 167.305 -5.55112e-17
101 1 74.2449 81.8607 -5.55112e-17
102 1 183.688 68.753 -5.55112e-17
103 1 95.3288 34.7246 -5.55112e-17
104 1 1.87897 99.1071 -5.55112e-17
105 1 92.5143 89.437 -5.55112e-17
106 1 76.976 110.722 -5.55112e-17
107 2 120.222 52.612 -5.55112e-17
108 1 56.4085 215.235 -5.55112e-17
109 1 198.165 129.04 -5.55112e-17
110 1 43.3607 91.4083 -5.55112e-17
111 1 38.5277 217.505 -5.55112e-17
112 1 47.8178 124.005 -5.55112e-17
113 1 146.251 147.311 -5.55112e-17
114 1 146.833 196.081 -5.55112e-17
115 1 56.9413 201.609 -5.55112e-17
116 2 8.96512 171.852 -5.55112e-17
117 1 174.232 177.882 -5.55112e-17
118 1 179.588 214.728 -5.55112e-17
119 2 69.8771 92.0115 -5.55112e-17
120 1 5.37425 17.4445 -5.55112e-17
121 1 167.239 50.9661 -5.55112e-17
122 1 100.058 27.3334 -5.55112e-17
123 1 151.508 114.884 -5.55112e-17
124 1 199.855 9.46757 -5.55112e-17
125 1 130.641 74.7251 -5.55112e-17
126 1 45.4246 42.7868 -5.55112e-17
127 1 179.014 55.1277 -5.55112e-17
128 1 172.731 182.297 -5.55112e-17
129 1 0.814397 153.8 -5.55112e-17
130 1 48.915 134.603 -5.55112e-17
131 1 189.069 164.976 -5.55112e-17
132 2 218.201 209.302 -5.55112e-17
133 1 130.373 119.898 -5.55112e-17
134 1 40.4925 60.1944 -5.55112e-17
135 1 162.453 189.751 -5.55112e-17
136 1 217.375 141.766 -5.55112e-17
137 1 151.985 207.165 -5.55112e-17
138 1 34.9965 35.1832 -5.55112e-17
139 1 4.52266 99.5114 -5.55112e-17
140 2 145.716 193.576 -5.55112e-17
141 1 186.569 49.682 -5.55112e-17
142 2 178.308 10.5588 -5.55112e-17
143 1 38.8509 173.165 -5.55112e-17
144 2 50.177 12.4326 -5.55112e-17
145 1 104.602 50.2333 -5.55112e-17
146 1 146.796 44.1553 -5.55112e-17
147 1 172.343 161.292 -5.55112e-17
148 1 57.4572 211.16 -5.55112e-17
149 1 55.6995 58.2735 -5.55112e-17
150 1 183.951 40.133 -5.55112e-17
151 1 77.0635 172.952 -5.55112e-17
152 1 40.1223 100.609 -5.55112e-17
153 2 21.9698 201.229 -5.55112e-17
154 1 190.19 111.932 -5.55112e-17
155 1 147.774 180.867 -5.55112e-17
156 2 15.6438 188.459 -5.55112e-17
157 1 196.319 64.0419 -5.55112e-17
158 1 48.4655 209.334 -5.55112e-17
159 1 8.28454 152.116 -5.55112e-17
160 1 56.8387 187.864 -5.55112e-17
161 1 60.4737 1.75463 -5.55112e-17
162 1 54.4524 147.445 -5.55112e-17
163 1 81.2988 35.3277 -5.55112e-17
164 1 167.853 97.8141 -5.55112e-17
165 1 185.676 199.504 -5.55112e-17
166 2 171.255 43.4686 -5.55112e-17
167 1 139.31 75.6543 -5.55112e-17
168 1 147.826 169.305 -5.55112e-17
169 1 118.19 125.904 -5.55112e-17
170 1 98.2489 168.711 -5.55112e-17
171 1 180.929 127.227 -5.55112e-17
172 1 31.4211 53.3419 -5.55112e-17
173 1 35.6692 164.521 -5.55112e-17
174 1 93.6724 112.321 -5.55112e-17
175 2 161.066 164.416 -5.55112e-17
176 1 51.3431 155.248 -5.55112e-17
177 2 37.8378 90.765 -5.55112e-17
178 1 60.8219 87.3948 -5.55112e-17
179 1 200.047 165.206 -5.55112e-17
180 1 200.131 207.141 -5.55112e-17
181 1 7.72154 107.532 -5.55112e-17
182 2 199.735 22.0372 -5.55112e-17
183 1 81.2506 150.518 -5.55112e-17
184 1 159.19 24.8068 -5.55112e-17
185 2 104.856 33.2383 -5.55112e-17
186 2 188.114 103.68 -5.55112e-17
187 1 66.6772 67.568 -5.55112e-17
188 1 106.118 18.7295 -5.55112e-17
189 1 151.06 185.465 -5.55112e-17
190 2 24.7902 173.944 -5.55112e-17
191 1 124.877 20.2249 -5.55112e-17
192 2 203.809 60.0558 -5.55112e-17
193 2 99.8557 186.847 -5.55112e-17
194 1 210.479 130.269 -5.55112e-17
195 1 209.169 163.591 -5.55112e-17
196 1 209.845 119.447 -5.55112e-17
197 1 4.42448 57.6985 -5.55112e-17
198 2 62.5386 99.4722 -5.55112e-17
199 1 22.569 13.4646 -5.55112e-17
200 1 85.9837 24.2025 -5.55112e-17
201 2 68.9568 131.459 -5.55112e-17
202 1 90.7688 8.69677 -5.55112e-17
203 1 129.74 96.4139 -5.55112e-17
204 1 168.674 133.837 -5.55112e-17
205 2 15.365 99.3692 -5.55112e-17
206 1 120.41 115.532 -5.55112e-17
207 1 139.709 95.4037 -5.55112e-17
208 1 34.1887 59.9742 -5.55112e-17
209 1 150.516 192.796 -5.55112e-17
210 1 9.10454 78.6705 -5.55112e-17
211 2 147.989 188.371 -5.55112e-17
212 1 182.747 52.5884 -5.55112e-17
213 1 178.869 82.9768 -5.55112e-17
214 1 72.1365 49.6126 -5.55112e-17
215 1 143.469 191.388 -5.55112e-17
216 1 148.135 121.384 -5.55112e-17
217 1 147.039 116.836 -5.55112e-17
218 2 33.3406 127.593 -5.55112e-17
219 1 104.434 180.944 -5.55112e-17
220 2 89.0551 119.213 -5.55112e-17
221 1 208.157 68.5256 -5.55112e-17
222 1 142.47 143.804 -5.55112e-17
223 1 22.5007 168.615 -5.55112e-17
224 2 50.338 198.419 -5.55112e-17
225 1 9.27296 111.449 -5.55112e-17
226 1 24.7217 159.627 -5.55112e-17
227 2 33.9929 12.0759 -5.55112e-17
228 1 123.29 144.407 -5.55112e-17
229 1 13.9278 181.128 -5.55112e-17
230 1 173.173 142.848 -5.55112e-17
231 1 157.454 89.8166 -5.55112e-17
232 1 207.925 35.1473 -5.55112e-17
233 1 36.7152 96.5436 -5.55112e-17
234 1 98.2645 29.6577 -5.55112e-17
235 1 208.219 62.5048 -5.55112e-17
236 1 34.5907 114.84 -5.55112e-17
237 1 17.1428 148.082 -5.55112e-17
238 1 112.657 135.179 -5.55112e-17
239 2 37.51 101.572 -5.55112e-17
240 1 126.214 205.444 -5.55112e-17
241 2 90.5674 167.607 -5.55112e-17
242 2 198.826 214.72 -5.55112e-17
243 2 61.1061 26.8967 -5.55112e-17
244 1 92.0851 92.0633 -5.55112e-17
245 1 88.3934 116.354 -5.55112e-17
246 1 181.619 138.841 -5.55112e-17
247 1 173.016 101.308 -5.55112e-17
248 1 123.929 39.6786 -5.55112e-17
249 1 214.332 67.7563 -5.55112e-17
250 2 95.3382 45.864 -5.55112e-17
251 1 103.808 9.37351 -5.55112e-17
252 1 185.15 19.5987 -5.55112e-17
253 1 144.574 54.2935 -5.55112e-17
254 2 72.4135 190.46 -5.55112e-17
255 1 212.762 155.767 -5.55112e-17
256 1 102.293 156.39 -5.55112e-17
257 1 29.1394 148.364 -5.55112e-17
258 2 157.316 7.47895 -5.55112e-17
259 1 14.4141 120.335 -5.55112e-17
260 1 96.2849 118.361 -5.55112e-17
261 1 210.792 165.719 -5.55112e-17
262 1 61.7189 72.7774 -5.55112e-17
263 1 31.5619 73.3916 -5.55112e-17
264 1 182.052 211.387 -5.55112e-17
265 1 42.589 22.0475 -5.55112e-17
266 1 200.083 32.4437 -5.55112e-17
267 1 182.399 59.4692 -5.55112e-17
268 1 18.8004 35.3562 -5.55112e-17
269 1 103.516 101.115 -5.55112e-17
270 1 82.2932 97.9169 -5.55112e-17
271 1 88.613 68.0424 -5.55112e-17
272 1 197.572 154.223 -5.55112e-17
273 1 76.9877 21.6139 -5.55112e-17
274 2 139.041 124.245 -5.55112e-17
275 1 61.1866 107.867 -5.55112e-17
276 2 201.727 37.4807 -5.55112e-17
277 2 129.685 37.9473 -5.55112e-17
278 1 58.6509 189.787 -5.55112e-17
279 2 99.9874 36.8154 -5.55112e-17
280 1 189.899 17.8719 -5.55112e-17
281 1 114.495 3.51706 -5.55112e-17
282 1 97.9069 171.693 -5.55112e-17
283 1 131.016 153.623 -5.55112e-17
284 1 153.781 94.3075 -5.55112e-17
285 1 200.569 212.774 -5.55112e-17
286 2 77.0726 1.16416 -5.55112e-17
287 1 51.7699 105.124 -5.55112e-17
288 1 14.324 86.3947 -5.55112e-17
289 1 59.9286 66.0435 -5.55112e-17
290 1 194.458 194.531 -5.55112e-17
291 1 166.611 140.486 -5.55112e-17
292 2 48.0411 7.4485 -5.55112e-17
293 2 107.017 16.17 -5.55112e-17
294 1 93.5885 32.8301 -5.55112e-17
295 1 122.483 17.8349 -5.55112e-17
296 1 109.407 23.4407 -5.55112e-17
297 1 173.302 147.332 -5.55112e-17
298 1 168.867 207.765 -5.55112e-17
299 1 141.317 103.937 -5.55112e-17
300 2 65.1279 171.246 -5.55112e-17
301 1 31.8246 65.6067 -5.55112e-17
302 1 91.3437 176.309 -5.55112e-17
303 2 49.3978 50.9506 -5.55112e-17
304 2 151.638 148.928 -5.55112e-17
305 1 105.45 115.088 -5.55112e-17
306 1 53.2785 61.9229 -5.55112e-17
307 1 22.1954 164.278 -5.55112e-17
308 1 69.336 67.5361 -5.55112e-17
309 2 111.656 149.878 -5.55112e-17
310 1 213.117 33.7425 -5.55112e-17
311 1 39.4294 51.375 -5.55112e-17
312 1 181.065 143.378 -5.55112e-17
313 2 123.587 4.93442 -5.55112e-17
314 1 93.6982 77.065 -5.55112e-17
315 1 120.352 153.78 -5.55112e-17
316 1 12.2316 61.4223 -5.55112e-17
317 1 41.9027 134.761 -5.55112e-17
318 1 101.59 203.228 -5.55112e-17
319 1 90.611 15.8117 -5.55112e-17
320 1 146.133 119.147 -5.55112e-17
321 1 37.9444 66.3439 -5.55112e-17
322 1 137.107 144.435 -5.55112e-17
323 1 191.73 182.464 -5.55112e-17
324 1 112.096 71.7483 -5.55112e-17
325 1 133.483 149.045 -5.55112e-17
326 1 81.6366 159.953 -5.55112e-17
327 2 105.96 193.728 -5.55112e-17
328 1 187.933 41.9836 -5.55112e-17
329 2 11.7816 115.761 -5.55112e-17
330 1 36.8592 118.715 -5.55112e-17
331 1 168.507 205.38 -5.55112e-17
332 2 162.984 98.1903 -5.55112e-17
333 1 28.1427 0.819043 -5.55112e-17
334 1 111.09 193.682 -5.55112e-17
335 1 217.383 195.552 -5.55112e-17
336 1 209.386 114.014 -5.55112e-17
337 1 172.999 217.412 -5.55112e-17
338 1 149.859 2.36619 -5.55112e-17
339 1 179.764 102.952 -5.55112e-17
340 1 192.696 116.101 -5.55112e-17
341 1 126.165 216.249 -5.55112e-17
342 1 152.879 173.474 -5.55112e-17
343 1 150.784 104.997 -5.55112e-17
344 1 94.2894 180.689 -5.55112e-17
345 1 4.598 209.095 -5.55112e-17
346 1 13.964 170.317 -5.55112e-17
347 1 59.0616 97.601 -5.55112e-17
348 1 122.494 179.571 -5.55112e-17
349 1 65.8207 120.88 -5.55112e-17
350 2 89.0548 73.2231 -5.55112e-17
351 1 157.036 14.7731 -5.55112e-17
352 1 202.916 148.173 -5.55112e-17
353 1 35.3543 200.066 -5.55112e-17
354 1 173.676 154.512 -5.55112e-17
355 1 88.8934 140.449 -5.55112e-17
356 1 167.607 9.37163 -5.55112e-17
357 1 46.5192 164.913 -5.55112e-17
358 1 206.812 189.808 -5.55112e-17
359 1 179.331 179.134 -5.55112e-17
360 1 32.0478 110.69 -5.55112e-17
361 1 116.987 177.658 -5.55112e-17
362 1 193.427 203.934 -5.55112e-17
363 1 174.434 180.608 -5.55112e-17
364 2 196.108 127.049 -5.55112e-17
365 1 195.334 105.621 -5.55112e-17
366 1 123.12 158.154 -5.55112e-17
367 1 63.3926 121.781 -5.55112e-17
368 1 191.892 4.10278 -5.55112e-17
369 2 77.5034 196.601 -5.55112e-17
370 1 6.06504 11.6442 -5.55112e-17
371 1 38.4292 125.775 -5.55112e-17
372 2 207.273 24.8041 -5.55112e-17
373 2 138.521 0.911983 -5.55112e-17
374 1 154.911 45.2207 -5.55112e-17
375 1 188.15 115.812 -5.55112e-17
376 1 41.8584 160.33 -5.55112e-17
377 1 206.453 81.4523 -5.55112e-17
378 1 75.2742 199.373 -5.55112e-17
379 1 10.4485 83.498 -5.55112e-17
380 1 190.535 144.339 -5.55112e-17
381 1 22.8033 180.444 -5.55112e-17
382 1 68.4167 138.881 -5.55112e-17
383 1 88.9234 78.8351 -5.55112e-17
384 1 49.4624 23.8802 -5.55112e-17
385 1 207.345 118.41 -5.55112e-17
386 2 59.7717 10.0457 -5.55112e-17
387 1 171.249 208.902 -5.55112e-17
388 1 92.734 99.8407 -5.55112e-17
389 1 80.9735 167.348 -5.55112e-17
390 2 211.884 168.344 -5.55112e-17
391 2 202.533 203.218 -5.55112e-17
392 1 82.3034 195.97 -5.55112e-17
393 1 207.565 58.2867 -5.55112e-17
394 1 83.7769 120.026 -5.55112e-17
395 1 25.3986 20.2811 -5.55112e-17
396 1 195.664 161.906 -5.55112e-17
397 1 143.54 73.995 -5.55112e-17
398 1 211.956 158.066 -5.55112e-17
399 1 180.11 31.5913 -5.55112e-17
400 1 101.256 39.7681 -5.55112e-17
401 1 84.0837 183.497 -5.55112e-17
402 2 8.7195 149.406 -5.55112e-17
403 1 196.031 25.4691 -5.55112e-17
404 1 12.3743 99.4175 -5.55112e-17
405 1 13.8844 178.822 -5.55112e-17
406 1 185.058 47.8704 -5.55112e-17
407 2 20.6618 68.0357 -5.55112e-17
408 1 30.1793 15.2295 -5.55112e-17
409 1 2.29136 114.516 -5.55112e-17
410 1 34.9984 213.429 -5.55112e-17
411 1 178.889 154.722 -5.55112e-17
412 1 108.089 25.5528 -5.55112e-17
413 1 55.9552 109.658 -5.55112e-17
414 1 3.70704 7.58223 -5.55112e-17
415 1 169.88 151.521 -5.55112e-17
416 1 57.0365 29.5268 -5.55112e-17
417 1 135.445 65.3971 -5.55112e-17
418 2 169.823 181.859 -5.55112e-17
419 1 122.487 132.224 -5.55112e-17
420 2 177.74 112.746 -5.55112e-17
421 1 0.414817 134.25 -5.55112e-17
422 1 153.134 28.1067 -5.55112e-17
423 2 172.316 172.141 -5.55112e-17
424 1 96.4567 181.499 -5.55112e-17
425 1 148.022 162.225 -5.55112e-17
426 1 138.324 142.233 -5.55112e-17
427 1 115.721 108.82 -5.55112e-17
428 1 71.5172 152.003 -5.55112e-17
429 1 190.246 129.754 -5.55112e-17
430 1 173.909 13.0965 -5.55112e-17
431 1 165.491 158.917 -5.55112e-17
432 1 128.703 217.526 -5.55112e-17
433 1 116.236 151.754 -5.55112e-17
434 1 26.0213 29.0396 -5.55112e-17
435 1 138.334 134.59 -5.55112e-17
436 1 98.9461 25.0471 -5.55112e-17
437 1 198.312 145.481 -5.55112e-17
438 2 143.509 70.9849 -5.55112e-17
439 1 96.5613 24.3816 -5.55112e-17
440 1 194.319 87.4687 -5.55112e-17
441 1 11.2023 161.257 -5.55112e-17
442 1 131.076 216.604 -5.55112e-17
443 1 17.2057 80.0265 -5.55112e-17
444 1 192.606 99.0045 -5.55112e-17
445 1 132.327 83.8384 -5.55112e-17
446 1 179.593 116.032 -5.55112e-17
447 1 22.0461 195.755 -5.55112e-17
448 1 101.235 29.4772 -5.55112e-17
449 1 154.752 131.225 -5.55112e-17
450 1 133.841 194.018 -5.55112e-17
451 1 159.438 18.1377 -5.55112e-17
452 1 145.263 157.875 -5.55112e-17
453 1 207.84 165.461 -5.55112e-17
454 1 196.489 12.5555 -5.55112e-17
455 1 144.992 95.8376 -5.55112e-17
456 1 195.463 202.393 -5.55112e-17
457 1 32.5844 34.5985 -5.55112e-17
458 1 172.117 177.137 -5.55112e-17
459 1 23.1477 47.4862 -5.55112e-17
460 1 216.349 114.703 -5.55112e-17
461 1 188.972 179.073 -5.55112e-17
462 1 56.9794 159.537 -5.55112e-17
463 1 139.511 21.582 -5.55112e-17
464 1 126.117 202.683 -5.55112e-17
465 1 184.309 122.582 -5.55112e-17
466 1 64.5161 147.391 -5.55112e-17
467 1 42.581 70.645 -5.55112e-17
468 1 200.914 167.374 -5.55112e-17
469 1 67.7588 89.9133 -5.55112e-17
470 1 70.4881 34.448 -5.55112e-17
471 1 128.228 201.286 -5.55112e-17
472 1 12.3363 74.6282 -5.55112e-17
473 1 100.052 108.414 -5.55112e-17
474 1 106.371 154.145 -5.55112e-17
475 1 88.1681 189.205 -5.55112e-17
476 2 191.843 11.631 -5.55112e-17
477 1 170.968 76.455 -5.55112e-17
478 1 16.2067 182.93 -5.55112e-17
479 1 193.029 16.5468 -5.55112e-17
480 1 29.5824 41.1004 -5.55112e-17
481 1 31.2662 129.733 -5.55112e-17
482 1 118.129 135.887 -5.55112e-17
483 1 117.759 153.95 -5.55112e-17
484 2 77.0241 48.5627 -5.55112e-17
485 1 64.3074 206.113 -5.55112e-17
486 1 66.7563 31.7509 -5.55112e-17
487 1 72.3588 214.499 -5.55112e-17
488 1 67.9444 114.034 -5.55112e-17
489 1 151.8 90.1626 -5.55112e-17
490 1 213.231 212.143 -5.55112e-17
491 1 176.414 90.8859 -5.55112e-17
492 1 4.51291 113.472 -5.55112e-17
493 1 170.988 175.007 -5.55112e-17
494 1 162.892 158.789 -5.55112e-17
495 1 116.185 30.5823 -5.55112e-17
496 2 96.5284 201.554 -5.55112e-17
497 1 34.0624 8.10002 -5.55112e-17
498 1 110.984 124.642 -5.55112e-17
499 2 132.473 182.469 -5.55112e-17
500 1 116.1 212.234 -5.55112e-17
501 2 149.895 211.777 -5.55112e-17
502 2 134.225 163.322 -5.55112e-17
503 1 154.088 143.566 -5.55112e-17
504 1 124.487 155.95 -5.55112e-17
505 1 166.768 31.2494 -5.55112e-17
506 1 20.0681 174.779 -5.55112e-17
507 1 89.547 133.515 -5.55112e-17
508 1 149.861 38.6335 -5.55112e-17
509 2 51.7073 72.8363 -5.55112e-17
510 2 164.6 82.3938 -5.55112e-17
511 1 86.1038 87.4804 -5.55112e-17
512 2 25.707 74.2875 -5.55112e-17
513 1 65.1057 2.12931 -5.55112e-17
514 1 71.4779 106.308 -5.55112e-17
515 1 0.766279 196.258 -5.55112e-17
516 1 51.0624 195.733 -5.55112e-17
517 1 119.185 123.296 -5.55112e-17
518 2 98.9905 70.7025 -5.55112e-17
519 1 11.7155 30.9156 -5.55112e-17
520 2 18.9281 29.3603 -5.55112e-17
521 1 194.52 110.354 -5.55112e-17
522 1 23.5044 213.658 -5.55112e-17
523 1 18.6686 132.474 -5.55112e-17
524 1 35.3122 57.2797 -5.55112e-17
525 1 70.9998 201.163 -5.55112e-17
526 1 112.652 34.5635 -5.55112e-17
527 1 82.2133 30.4465 -5.55112e-17
528 1 148.179 22.5559 -5.55112e-17
529 1 61.9753 156.526 -5.55112e-17
530 1 143.389 97.6822 -5.55112e-17
531 1 88.7254 152.391 -5.55112e-17
532 1 92.9245 198.268 -5.55112e-17
533 1 109.011 154.496 -5.55112e-17
534 1 96.3464 134.992 -5.55112e-17
535 1 207.466 129.534 -5.55112e-17
536 1 174.828 123.562 -5.55112e-17
537 1 171.709 179.946 -5.55112e-17
538 1 129.08 31.6018 -5.55112e-17
539 1 55.8662 3.92871 -5.55112e-17
540 1 152.147 107.014 -5.55112e-17
541 1 100.788 217.046 -5.55112e-17
542 1 74.2248 38.5339 -5.55112e-17
543 1 100.507 167.635 -5.55112e-17
544 1 171.573 195.052 -5.55112e-17
545 1 41.3384 137.204 -5.55112e-17
546 1 182.908 2.05364 -5.55112e-17
547 1 21.3838 114.987 -5.55112e-17
548 1 72.0245 158.117 -5.55112e-17
549 1 34.2513 32.8743 -5.55112e-17
550 2 0.454088 139.392 -5.55112e-17
551 2 116.88 98.3656 -5.55112e-17
552 2 152.994 209.72 -5.55112e-17
553 1 139.639 208.941 -5.55112e-17
554 1 213.942 74.4059 -5.55112e-17
555 2 199.083 57.0751 -5.55112e-17
556 1 142.486 13.4206 -5.55112e-17
557 1 57.6861 49.5289 -5.55112e-17
558 1 159.21 151.096 -5.55112e-17
559 1 178.041 18.5353 -5.55112e-17
560 1 112.019 47.0563 -5.55112e-17
561 1 172.57 152.08 -5.55112e-17
562 1 167.343 147.234 -5.55112e-17
563 2 174.933 169.894 -5.55112e-17
564 1 29.2899 65.8532 -5.55112e-17
565 1 80.1681 213.252 -5.55112e-17
566 1 51.4517 76.1611 -5.55112e-17
567 1 192.748 101.694 -5.55112e-17
568 1 63.7471 199.306 -5.55112e-17
569 1 61.4043 147.857 -5.55112e-17
570 1 119.324 128.034 -5.55112e-17
571 1 194.807 187.608 -5.55112e-17
572 1 149.619 89.2288 -5.55112e-17
573 1 168.137 43.7956 -5.55112e-17
574 1 0.0208611 169.269 -5.55112e-17
575 1 188.883 56.3049 -5.55112e-17
576 1 185.483 102.352 -5.55112e-17
577 1 143.164 203.824 -5.55112e-17
578 1 160.72 185.911 -5.55112e-17
579 1 11.9172 13.3574 -5.55112e-17
580 1 151.632 40.5942 -5.55112e-17
581 1 185.987 148.143 -5.55112e-17
582 1 12.818 38.7546 -5.55112e-17
583 1 186.664 211.413 -5.55112e-17
584 2 48.9105 163.365 -5.55112e-17
585 1 79.3203 102.382 -5.55112e-17
586 1 112.486 164.254 -5.55112e-17
587 1 218.547 59.3064 -5.55112e-17
588 1 52.1193 173.68 -5.55112e-17
589 1 119.917 178.924 -5.55112e-17
590 1 81.9553 45.7339 -5.55112e-17
591 1 52.6509 179.013 -5.55112e-17
592 1 0.787558 89.5776 -5.55112e-17
593 1 205.577 27.1073 -5.55112e-17
594 1 3.08897 197.284 -5.55112e-17
595 1 121.656 77.2277 -5.55112e-17
596 1 200.272 44.7008 -5.55112e-17
597 2 173.376 9.27163 -5.55112e-17
598 1 184.042 204.703 -5.55112e-17
599 1 1.50715 48.192 -5.55112e-17
600 1 130.583 202.157 -5.55112e-17
601 1 58.467 184.364 -5.55112e-17
602 1 101.667 25.1225 -5.55112e-17
603 1 207.369 9.22263 -5.55112e-17
604 1 128.618 206.273 -5.55112e-17
605 2 96.7198 130.057 -5.55112e-17
606 1 154.997 150.938 -5.55112e-17
607 2 160.024 159.193 -5.55112e-17
608 1 119.103 113.416 -5.55112e-17
609 1 69.0925 167.482 -5.55112e-17
610 1 178.664 138.527 -5.55112e-17
611 1 38.7059 141.053 -5.55112e-17
612 1 32.2065 77.6248 -5.55112e-17
613 1 204.376 170.261 -5.55112e-17
614 2 191.632 169.49 -5.55112e-17
615 1 87.0147 216.353 -5.55112e-17
616 1 171.818 92.5395 -5.55112e-17
617 1 56.7175 194.464 -5.55112e-17
618 1 190.545 176.864 -5.55112e-17
619 1 153.165 119.311 -5.55112e-17
620 1 132.817 91.6795 -5.55112e-17
621 1 141.778 99.8007 -5.55112e-17
622 1 110.8 184.257 -5.55112e-17
623 1 188.091 199.882 -5.55112e-17
624 1 7.6654 43.6008 -5.55112e-17
625 1 175.311 86.5657 -5.55112e-17
626 1 81.2608 9.7652 -5.55112e-17
627 1 83.0449 105.23 -5.55112e-17
628 1 67.9532 15.9256 -5.55112e-17
629 1 74.7544 136.142 -5.55112e-17
630 2 134.895 35.9895 -5.55112e-17
631 1 45.8757 113.486 -5.55112e-17
632 1 73.5012 129.673 -5.55112e-17
633 1 40.6342 208.361 -5.55112e-17
634 1 157.207 61.3112 -5.55112e-17
635 1 134.714 113.291 -5.55112e-17
636 1 177.553 80.9819 -5.55112e-17
637 1 8.855 34.8824 -5.55112e-17
638 1 1.04656 53.9964 -5.55112e-17
639 2 45.1477 58.0779 -5.55112e-17
640 1 156.89 167.036 -5.55112e-17
641 1 193.25 104.466 -5.55112e-17
642 1 162.242 55.8201 -5.55112e-17
643 2 173.61 21.0425 -5.55112e-17
644 1 89.779 204.719 -5.55112e-17
645 1 125.51 179.478 -5.55112e-17
646 2 12.2574 176.462 -5.55112e-17
647 1 95.2768 12.5271 -5.55112e-17
648 1 187.772 106.984 -5.55112e-17
649 2 4.05607 119.341 -5.55112e-17
650 1 32.9553 201.403 -5.55112e-17
651 1 13.8969 117.807 -5.55112e-17
652 1 156.724 213.819 -5.55112e-17
653 1 170.797 218.734 -5.55112e-17
654 1 8.05173 22.1979 -5.55112e-17
655 2 199.863 96.8814 -5.55112e-17
656 1 21.1954 182.278 -5.55112e-17
657 2 78.9243 45.4254 -5.55112e-17
658 1 211.692 46.654 -5.55112e-17
659 2 206.883 171.886 -5.55112e-17
660 1 82.4664 32.8137 -5.55112e-17
661 1 56.4453 149.641 -5.55112e-17
662 1 65.0662 104.076 -5.55112e-17
663 1 88.3511 8.04992 -5.55112e-17
664 1 133.952 30.7914 -5.55112e-17
665 1 153.396 75.391 -5.55112e-17
666 2 87.5574 213.304 -5.55112e-17
667 1 156.185 42.7891 -5.55112e-17
668 2 101.051 99.9175 -5.55112e-17
669 1 130.599 62.198 -5.55112e-17
670 1 148.07 198.462 -5.55112e-17
671 2 51.9548 192.848 -5.55112e-17
672 1 162.853 28.6838 -5.55112e-17
673 1 17.3661 43.708 -5.55112e-17
674 1 209.105 169.872 -5.55112e-17
675 1 115.224 50.6782 -5.55112e-17
676 1 159.035 127.066 -5.55112e-17
677 1 102.08 161.297 -5.55112e-17
678 1 112.98 9.01501 -5.55112e-17
679 2 165.866 185.638 -5.55112e-17
680 1 28.892 5.35766 -5.55112e-17
681 2 137.66 19.478 -5.55112e-17
682 1 196.225 43.3269 -5.55112e-17
683 1 27.3405 44.5007 -5.55112e-17
684 1 109.285 160.845 -5.55112e-17
685 1 154.489 83.4299 -5.55112e-17
686 1 95.4893 107.891 -5.55112e-17
687 1 153.206 141.499 -5.55112e-17
688 1 171.927 108.143 -5.55112e-17
689 2 77.0227 38.0743 -5.55112e-17
690 1 87.6817 21.8671 -5.55112e-17
691 1 55.0541 12.0186 -5.55112e-17
692 1 120.206 158.366 -5.55112e-17
693 1 114.706 216.377 -5.55112e-17
694 1 38.7493 209.9 -5.55112e-17
695 1 2.81456 124.859 -5.55112e-17
696 1 134.668 108.803 -5.55112e-17
697 1 137.767 161.004 -5.55112e-17
698 1 152.267 58.9529 -5.55112e-17
699 1 191.287 157.166 -5.55112e-17
700 1 39.0932 39.7796 -5.55112e-17
701 1 2.27548 43.0381 -5.55112e-17
702 1 59.2443 80.3645 -5.55112e-17
703 2 9.81369 141.757 -5.55112e-17
704 1 37.954 199.439 -5.55112e-17
705 2 200.957 84.4375 -5.55112e-17
706 1 108.736 149.673 -5.55112e-17
707 1 120.987 70.3434 -5.55112e-17
708 1 65.2694 145.016 -5.55112e-17
709 1 157.324 196.612 -5.55112e-17
710 1 3.56929 158.279 -5.55112e-17
711 1 140.531 127.037 -5.55112e-17
712 1 206.232 152.528 -5.55112e-17
713 1 136.469 132.346 -5.55112e-17
714 1 144.287 78.0082 -5.55112e-17
715 1 55.0024 192.715 -5.55112e-17
716 1 84.2487 134.225 -5.55112e-17
717 1 171.37 103.931 -5.55112e-17
718 1 162.025 167.27 -5.55112e-17
719 2 63.3069 115.942 -5.55112e-17
720 1 121.608 63.7073 -5.55112e-17
721 1 185.641 82.3458 -5.55112e-17
722 1 111.763 92.8803 -5.55112e-17
723 2 4.87227 60.6321 -5.55112e-17
724 1 2.88 2.48777 -5.55112e-17
725 1 18.8324 58.665 -5.55112e-17
726 1 91.4847 113.21 -5.55112e-17
727 1 185.153 183.01 -5.55112e-17
728 2 217.112 90.9586 -5.55112e-17
729 1 104.455 167.518 -5.55112e-17
730 1 59.3641 193.929 -5.55112e-17
731 1 84.1936 206.255 -5.55112e-17
732 1 49.2537 28.9168 -5.55112e-17
733 1 23.7823 37.9863 -5.55112e-17
734 1 169.708 24.3147 -5.55112e-17
735 1 0.634202 39.1777 -5.55112e-17
736 2 27.4187 79.9275 -5.55112e-17
737 1 15.3385 111.616 -5.55112e-17
738 1 218.43 200.795 -5.55112e-17
739 1 123.047 191.22 -5.55112e-17
740 1 70.6345 134.218 -5.55112e-17
741 2 177.075 44.6497 -5.55112e-17
742 1 25.1911 62.1791 -5.55112e-17
743 1 79.0553 84.5803 -5.55112e-17
744 2 198.145 149.589 -5.55112e-17
745 1 124.261 176.855 -5.55112e-17
746 1 13.1092 18.2947 -5.55112e-17
747 2 192.358 1.1453 -5.55112e-17
748 1 74.1142 207.55 -5.55112e-17
749 1 202.175 205.834 -5.55112e-17
750 1 4.72043 111.084 -5.55112e-17
751 1 65.5241 72.1281 -5.55112e-17
752 1 120.778 174.242 -5.55112e-17
753 1 146.24 171.297 -5.55112e-17
754 1 199.76 201.794 -5.55112e-17
755 1 117.729 190.635 -5.55112e-17
756 2 130.885 189.518 -5.55112e-17
757 1 211.465 188.741 -5.55112e-17
758 1 9.94471 174.583 -5.55112e-17
759 1 80.8424 145.956 -5.55112e-17
760 1 138.211 78.0554 -5.55112e-17
761 1 104.007 195.709 -5.55112e-17
762 1 5.12272 83.0443 -5.55112e-17
763 1 43.9784 136.533 -5.55112e-17
764 2 149.641 151.469 -5.55112e-17
765 1 39.306 78.5996 -5.55112e-17
766 1 112.627 20.9277 -5.55112e-17
767 1 51.6522 48.9455 -5.55112e-17
768 1 161.633 2.21158 -5.55112e-17
769 1 69.8789 25.1212 -5.55112e-17
770 2 62.2772 105.403 -5.55112e-17
771 1 176.24 185.396 -5.55112e-17
772 1 86.2784 66.7529 -5.55112e-17
773 1 86.793 173.881 -5.55112e-17
774 1 167.197 125.801 -5.55112e-17
775 1 99.6629 31.8453 -5.55112e-17
776 1 35.9383 54.8702 -5.55112e-17
777 1 189.348 181.521 -5.55112e-17
778 1 212.742 196.319 -5.55112e-17
779 1 191.114 203.095 -5.55112e-17
780 1 188.405 137.998 -5.55112e-17
781 1 50.1562 66.9956 -5.55112e-17
782 1 190.211 46.6937 -5.55112e-17
783 1 103.007 27.4221 -5.55112e-17
784 2 204.186 86.004 -5.55112e-17
785 1 119.267 9.94432 -5.55112e-17
786 1 115.252 198.121 -5.55112e-17
787 1 162.789 198.236 -5.55112e-17
788 1 161.078 19.8046 -5.55112e-17
789 2 197.488 110.354 -5.55112e-17
790 1 37.8884 44.5151 -5.55112e-17
791 2 20.0053 155.728 -5.55112e-17
792 2 213.513 14.7449 -5.55112e-17
793 2 130.227 54.7708 -5.55112e-17
794 1 79.7394 29.9643 -5.55112e-17
795 1 165.998 48.6114 -5.55112e-17
796 1 72.8078 10.6984 -5.55112e-17
797 1 179.814 98.1874 -5.55112e-17
798 2 194.076 23.5001 -5.55112e-17
799 2 216.873 77.1654 -5.55112e-17
800 2 113.516 16.519 -5.55112e-17
801 1 54.2561 100.915 -5.55112e-17
802 1 65.2917 94.6966 -5.55112e-17
803 1 178.712 74.2086 -5.55112e-17
804 2 108.019 60.6005 -5.55112e-17
805 1 28.4581 87.2585 -5.55112e-17
806 1 79.216 182.698 -5.55112e-17
807 2 123.002 103.756 -5.55112e-17
808 1 63.1909 70.6785 -5.55112e-17
809 2 191.22 87.4408 -5.55112e-17
810 1 111.597 29.4103 -5.55112e-17
811 1 207.44 201.764 -5.55112e-17
812 1 135.633 25.1074 -5.55112e-17
813 2 149.053 125.793 -5.55112e-17
814 1 105.935 139.849 -5.55112e-17
815 1 100.809 158.778 -5.55112e-17
816 1 27.2074 3.21609 -5.55112e-17
817 1 168.314 6.97078 -5.55112e-17
818 1 54.8603 180.438 -5.55112e-17
819 1 44.1191 194.634 -5.55112e-17
820 1 32.3848 141.719 -5.55112e-17
821 1 114.176 128.474 -5.55112e-17
822 2 19.9524 162.47 -5.55112e-17
823 2 98.5655 79.3692 -5.55112e-17
824 1 86.4424 74.6455 -5.55112e-17
825 1 208.497 212.801 -5.55112e-17
826 1 30.2511 212.838 -5.55112e-17
827 1 189.817 162.648 -5.55112e-17
828 1 164.128 110.172 -5.55112e-17
829 1 180.434 2.74073 -5.55112e-17
830 1 74.4387 101.324 -5.55112e-17
831 1 183.551 9.28666 -5.55112e-17
832 1 216.983 42.6726 -5.55112e-17
833 1 32.0587 44.4074 -5.55112e-17
834 1 99.1165 0.157256 -5.55112e-17
835 1 210.273 15.5429 -5.55112e-17
836 1 215.692 62.7751 -5.55112e-17
837 1 52.4807 46.6173 -5.55112e-17
838 1 154.521 199.22 -5.55112e-17
839 2 192.884 161.84 -5.55112e-17
840 1 133.679 8.32075 -5.55112e-17
841 2 97.3476 184.053 -5.55112e-17
842 1 60.4653 24.0408 -5.55112e-17
843 2 173.514 128.089 -5.55112e-17
844 1 30.9405 0.291887 -5.55112e-17
845 1 88.6453 180.574 -5.55112e-17
846 1 140.276 167.603 -5.55112e-17
847 1 92.7521 205.16 -5.55112e-17
848 1 109.663 46.007 -5.55112e-17
849 1 199.5 131.821 -5.55112e-17
850 1 34.7175 145.682 -5.55112e-17
851 1 98.3403 216.383 -5.55112e-17
852 1 84.2172 191.597 -5.55112e-17
853 1 87.4223 126.793 -5.55112e-17
854 1 96.9859 72.7389 -5.55112e-17
855 1 136.355 81.5566 -5.55112e-17
856 1 80.832 177.362 -5.55112e-17