ITEM: TIMESTEP
0
ITEM: NUMBER OF ATOMS
7200
ITEM: BOX BOUNDS xy xz yz pp pp pp
0.0000000000000000e+00 2.1900000000000000e+02 0.0000000000000000e+00
0.0000000000000000e+00 2.1900000000000000e+02 0.0000000000000000e+00
-3.6499999999999999e-01 3.6499999999999999e-01 0.0000000000000000e+00
ITEM: ATOMS id type x y z
1 1 80.2024 190.846 -5.55112e-17
2 1 144.698 80.892 -5.55112e-17
3 1 17.9428 192.52 -5.55112e-17
4 1 50.3183 104.015 -5.55112e-17
5 1 87.6541 124.639 -5.55112e-17
6 1 123.857 186.515 -5.55112e-17
7 1 1.36233 76.3369 -5.55112e-17
8 2 181.729 117.071 -5.55112e-17
9 1 151.28 211.983 -5.55112e-17
10 2 74.2433 186.2 -5.55112e-17
11 1 160.526 35.8502 -5.55112e-17
12 1 159.073 66.7387 -5.55112e-17
13 2 41.8537 85.7949 -5.55112e-17
14 1 77.7333 63.7653 -5.55112e-17
15 1 142.3 125.958 -5.55112e-17
16 2 84.3141 214.078 -5.55112e-17
17 1 157.583 217.657 -5.55112e-17
18 2 22.8517 46.8659 -5.55112e-17
19 1 60.7739 91.2302 -5.55112e-17
20 1 203.481 116.219 -5.55112e-17
21 1 88.5486 193.787 -5.55112e-17
22 2 34.7077 158.861 -5.55112e-17
23 2 43.5362 65.7041 -5.55112e-17
24 1 175.197 113.308 -5.55112e-17
25 1 45.0161 184.761 -5.55112e-17
26 2 107.934 79.1977 -5.55112e-17
27 1 180.674 204.788 -5.55112e-17
28 2 64.1055 179.71 -5.55112e-17
29 1 33.8641 96.0939 -5.55112e-17
30 1 170.482 75.1034 -5.55112e-17
31 1 211.018 50.3658 -5.55112e-17
32 1 76.8866 187.871 -5.55112e-17
33 1 177.092 183.368 -5.55112e-17
34 1 79.3707 40.1939 -5.55112e-17
35 1 187.899 44.1542 -5.55112e-17
36 1 5.15362 123.7 -5.55112e-17
37 2 146.581 122.141 -5.55112e-17
38 1 141.758 113.213 -5.55112e-17
39 1 122.714 135.033 -5.55112e-17
40 1 137.774 201.823 -5.55112e-17
41 1 91.346 33.2354 -5.55112e-17
42 1 79.4742 74.4299 -5.55112e-17
43 1 199.164 58.2658 -5.55112e-17
44 1 132.581 87.8423 -5.55112e-17
45 1 3.15764 55.2848 -5.55112e-17
46 1 107.585 189.193 -5.55112e-17
47 1 4.206 167.289 -5.55112e-17
48 2 59.9297 66.8849 -5.55112e-17
49 1 15.4359 98.0838 -5.55112e-17
50 1 65.2851 149.924 -5.55112e-17
51 1 107.36 25.2193 -5.55112e-17
52 1 161.816 85.0317 -5.55112e-17
53 1 119.659 204.806 -5.55112e-17
54 1 207.35 129.102 -5.55112e-17
55 1 215.948 198.686 -5.55112e-17
56 1 110.747 138.486 -5.55112e-17
57 2 116.678 197.174 -5.55112e-17
58 1 2.00728 207.175 -5.55112e-17
59 1 184.887 89.1329 -5.55112e-17
60 2 152.561 110.305 -5.55112e-17
61 2 35.096 172.052 -5.55112e-17
62 1 15.6618 116.636 -5.55112e-17
63 1 87.6208 201.88 -5.55112e-17
64 1 143.159 39.9924 -5.55112e-17
65 1 158.611 137.804 -5.55112e-17
66 1 121.691 110.979 -5.55112e-17
67 1 125.93 111.981 -5.55112e-17
68 1 59.1717 216.497 -5.55112e-17
69 1 106.643 184.188 -5.55112e-17
70 1 34.2069 104.719 -5.55112e-17
71 1 165.591 155.741 -5.55112e-17
72 1 152.138 56.5083 -5.55112e-17
73 1 170.058 152.607 -5.55112e-17
74 1 165.678 12.831 -5.55112e-17
75 2 120.596 213.574 -5.55112e-17
76 1 6.50206 38.1843 -5.55112e-17
77 1 207.169 204.614 -5.55112e-17
78 1 86.9503 184.158 -5.55112e-17
79 2 94.8769 44.9194 -5.55112e-17
80 1 74.9528 132.547 -5.55112e-17
81 1 130.925 120.615 -5.55112e-17
82 1 85.0708 161.889 -5.55112e-17
83 2 117.97 161.631 -5.55112e-17
84 1 201.681 24.6441 -5.55112e-17
85 1 57.5352 121.694 -5.55112e-17
86 1 106.225 118.192 -5.55112e-17
87 1 56.6338 32.792 -5.55112e-17
88 1 1.94059 8.75049 -5.55112e-17
89 2 51.2603 9.45353 -5.55112e-17
90 2 208.159 178.631 -5.55112e-17
91 1 203.433 69.9397 -5.55112e-17
92 2 154.063 207.266 -5.55112e-17
93 1 122.78 20.4667 -5.55112e-17
94 2 159.058 29.6739 -5.55112e-17
95 1 41.0086 208.296 -5.55112e-17
96 1 201.683 78.7132 -5.55112e-17
97 1 177.529 2.09201 -5.55112e-17
98 1 96.9024 76.7912 -5.55112e-17
99 1 158.176 52.7564 -5.55112e-17
100 1 145.487 190.513 -5.55112e-17
101 1 106.608 53.1659 -5.55112e-17
102 1 17.1061 75.7782 -5.55112e-17
103 1 68.1755 26.2678 -5.55112e-17
104 1 213.823 121.965 -5.55112e-17
105 1 100.962 49.136 -5.55112e-17
106 1 104.413 104.149 -5.55112e-17
107 2 137.891 76.7894 -5.55112e-17
108 1 64.9839 190.222 -5.55112e-17
109 1 15.6446 120.378 -5.55112e-17
110 1 22.5521 80.2724 -5.55112e-17
111 1 56.2697 10.0377 -5.55112e-17
112 1 29.9611 172.554 -5.55112e-17
113 1 136.384 121.825 -5.55112e-17
114 1 132.554 32.8685 -5.55112e-17
115 1 81.3018 176.372 -5.55112e-17
116 2 18.8271 140.669 -5.55112e-17
117 1 188.687 198.953 -5.55112e-17
118 1 164.329 17.9486 -5.55112e-17
119 2 4.62032 103.006 -5.55112e-17
120 1 11.3369 201.106 -5.55112e-17
121 1 181.607 60.2661 -5.55112e-17
122 1 110.37 14.5085 -5.55112e-17
123 1 145.509 93.4386 -5.55112e-17
124 1 182.734 194.04 -5.55112e-17
125 1 148.588 86.4958 -5.55112e-17
126 1 36.9927 33.2585 -5.55112e-17
127 1 191.805 63.1639 -5.55112e-17
128 1 158.344 179.378 -5.55112e-17
129 1 18.7071 158.871 -5.55112e-17
130 1 45.2543 150.606 -5.55112e-17
131 1 174.095 149.294 -5.55112e-17
132 2 209.497 211.497 -5.55112e-17
133 1 111.054 66.49 -5.55112e-17
134 1 17.1965 16.1217 -5.55112e-17
135 1 88.1008 15.2126 -5.55112e-17
136 1 202.355 157.396 -5.55112e-17
137 1 69.0459 169.779 -5.55112e-17
138 1 65.1182 19.463 -5.55112e-17
139 1 181.484 106.491 -5.55112e-17
140 2 124.81 209.118 -5.55112e-17
141 1 210.321 71.1858 -5.55112e-17
142 2 196.044 14.021 -5.55112e-17
143 1 62.2322 126.948 -5.55112e-17
144 2 29.4147 200.783 -5.55112e-17
145 1 149.626 69.9692 -5.55112e-17
146 1 147.302 69.4955 -5.55112e-17
147 1 152.749 154.926 -5.55112e-17
148 1 50.8353 201.462 -5.55112e-17
149 1 66.3391 46.8753 -5.55112e-17
150 1 197.504 216.16 -5.55112e-17
151 1 5.96344 171.668 -5.55112e-17
152 1 42.4872 91.0227 -5.55112e-17
153 2 7.69024 205.787 -5.55112e-17
154 1 156.195 131.789 -5.55112e-17
155 1 141.556 187.834 -5.55112e-17
156 2 20.3885 167.873 -5.55112e-17
157 1 198.518 84.4022 -5.55112e-17
158 1 35.4065 3.77535 -5.55112e-17
159 1 8.50978 147.854 -5.55112e-17
160 1 24.0066 2.45876 -5.55112e-17
161 1 69.4822 21.1946 -5.55112e-17
162 1 51.8975 113.036 -5.55112e-17
163 1 70.0049 28.0013 -5.55112e-17
164 1 154.488 96.4755 -5.55112e-17
165 1 161.203 197.838 -5.55112e-17
166 2 181.182 52.2731 -5.55112e-17
167 1 146.514 76.5782 -5.55112e-17
168 1 153.865 152.882 -5.55112e-17
169 1 72.0054 124.532 -5.55112e-17
170 1 109.468 163.08 -5.55112e-17
171 1 169.722 103.586 -5.55112e-17
172 1 24.6388 59.29 -5.55112e-17
173 1 22.2986 123.437 -5.55112e-17
174 1 85.542 117.923 -5.55112e-17
175 2 148.963 165.729 -5.55112e-17
176 1 48.0489 109.616 -5.55112e-17
177 2 43.0072 77.605 -5.55112e-17
178 1 51.374 106.783 -5.55112e-17
179 1 214.86 152.869 -5.55112e-17
180 1 190.3 206.288 -5.55112e-17
181 1 201.755 184.538 -5.55112e-17
182 2 218.872 13.2983 -5.55112e-17
183 1 61.9945 141.929 -5.55112e-17
184 1 199.114 63.004 -5.55112e-17
185 2 143.227 15.0541 -5.55112e-17
186 2 164.962 123.604 -5.55112e-17
187 1 97.7069 62.0476 -5.55112e-17
188 1 125.743 6.01855 -5.55112e-17
189 1 131.416 199.372 -5.55112e-17
190 2 56.8992 143.309 -5.55112e-17
191 1 140.156 14.3827 -5.55112e-17
192 2 6.77088 69.3759 -5.55112e-17
193 2 96.14 171.298 -5.55112e-17
194 1 197.457 138.541 -5.55112e-17
195 1 202.933 179.525 -5.55112e-17
196 1 180.716 120.194 -5.55112e-17
197 1 45.9097 77.9873 -5.55112e-17
198 2 68.5269 161.8 -5.55112e-17
199 1 35.2943 207.77 -5.55112e-17
200 1 102.992 39.794 -5.55112e-17
201 2 67.791 112.733 -5.55112e-17
202 1 73.6243 25.0744 -5.55112e-17
203 1 184.277 70.2534 -5.55112e-17
204 1 162.039 122.776 -5.55112e-17
205 2 38.5246 87.4017 -5.55112e-17
206 1 108.114 137.873 -5.55112e-17
207 1 89.8753 49.8148 -5.55112e-17
208 1 58.1471 91.535 -5.55112e-17
209 1 90.4672 210.831 -5.55112e-17
210 1 6.77154 89.4076 -5.55112e-17
211 2 143.288 185.329 -5.55112e-17
212 1 194.462 47.7339 -5.55112e-17
213 1 181.431 62.8554 -5.55112e-17
214 1 78.6876 35.2439 -5.55112e-17
215 1 125.524 1.61224 -5.55112e-17
216 1 188.919 81.8585 -5.55112e-17
217 1 132.269 165.233 -5.55112e-17
218 2 28.2366 131.512 -5.55112e-17
219 1 105.648 191.1 -5.55112e-17
220 2 125.559 82.5268 -5.55112e-17
221 1 218.19 46.9804 -5.55112e-17
222 1 138.958 97.3582 -5.55112e-17
223 1 45.9712 191.274 -5.55112e-17
224 2 50.1684 189.561 -5.55112e-17
225 1 204.442 146.537 -5.55112e-17
226 1 208.939 189.772 -5.55112e-17
227 2 37.4139 203.016 -5.55112e-17
228 1 104.609 134.902 -5.55112e-17
229 1 24.532 144.284 -5.55112e-17
230 1 162.62 149.579 -5.55112e-17
231 1 141.821 69.1947 -5.55112e-17
232 1 214.534 64.0717 -5.55112e-17
233 1 31.2896 92.2577 -5.55112e-17
234 1 114.051 49.3735 -5.55112e-17
235 1 212.731 88.5651 -5.55112e-17
236 1 70.1699 117.678 -5.55112e-17
237 1 202.581 165.415 -5.55112e-17
238 1 103.785 132.413 -5.55112e-17
239 2 66.2803 109.924 -5.55112e-17
240 1 121.343 206.193 -5.55112e-17
241 2 126.314 185.166 -5.55112e-17
242 2 199.961 205.3 -5.55112e-17
243 2 88.4915 26.0648 -5.55112e-17
244 1 79.1188 57.0736 -5.55112e-17
245 1 57.2392 99.0682 -5.55112e-17
246 1 149.67 128.9 -5.55112e-17
247 1 187.489 79.3159 -5.55112e-17
248 1 147.547 9.92238 -5.55112e-17
249 1 0.7752 82.9478 -5.55112e-17
250 2 127.714 21.6806 -5.55112e-17
251 1 130.364 42.7618 -5.55112e-17
252 1 194.676 22.4585 -5.55112e-17
253 1 154.791 55.6552 -5.55112e-17
254 2 55.8994 151.926 -5.55112e-17
255 1 197.131 166.634 -5.55112e-17
256 1 80.7612 159.591 -5.55112e-17
257 1 34.1745 144.573 -5.55112e-17
258 2 164.886 37.8892 -5.55112e-17
259 1 69.0513 115.676 -5.55112e-17
260 1 84.486 84.1499 -5.55112e-17
261 1 216.106 183.199 -5.55112e-17
262 1 44.9783 72.5498 -5.55112e-17
263 1 40.2572 61.0547 -5.55112e-17
264 1 170.718 11.6641 -5.55112e-17
265 1 7.37131 20.8148 -5.55112e-17
266 1 178.844 18.9377 -5.55112e-17
267 1 205.745 104.445 -5.55112e-17
268 1 57.2493 27.1543 -5.55112e-17
269 1 120.818 83.348 -5.55112e-17
270 1 112.667 96.8902 -5.55112e-17
271 1 61.9987 93.4727 -5.55112e-17
272 1 182.433 175.265 -5.55112e-17
273 1 63.1087 200.043 -5.55112e-17
274 2 112.734 81.7867 -5.55112e-17
275 1 71.8926 84.887 -5.55112e-17
276 2 61.7752 9.2999 -5.55112e-17
277 2 148.909 78.4414 -5.55112e-17
278 1 41.6233 156.283 -5.55112e-17
279 2 93.6253 24.2523 -5.55112e-17
280 1 6.57777 31.2771 -5.55112e-17
281 1 103.899 3.34177 -5.55112e-17
282 1 119.665 207.935 -5.55112e-17
283 1 129.006 143.754 -5.55112e-17
284 1 93.7511 60.0165 -5.55112e-17
285 1 213.93 205.596 -5.55112e-17
286 2 65.3234 2.68511 -5.55112e-17
287 1 30.0491 124.402 -5.55112e-17
288 1 15.8804 82.6007 -5.55112e-17
289 1 59.5829 14.3558 -5.55112e-17
290 1 172.496 181.52 -5.55112e-17
291 1 159.058 140.735 -5.55112e-17
292 2 51.9734 12.9914 -5.55112e-17
293 2 108.809 12.1792 -5.55112e-17
294 1 133.726 46.553 -5.55112e-17
295 1 106.557 213.899 -5.55112e-17
296 1 136.192 46.2056 -5.55112e-17
297 1 165.357 150.679 -5.55112e-17
298 1 165.897 5.94639 -5.55112e-17
299 1 121.565 106.101 -5.55112e-17
300 2 63.5675 132.138 -5.55112e-17
301 1 18.7755 8.63349 -5.55112e-17
302 1 154.058 177.868 -5.55112e-17
303 2 41.0688 37.5028 -5.55112e-17
304 2 155.846 160.961 -5.55112e-17
305 1 84.3616 120.532 -5.55112e-17
306 1 15.6629 12.8797 -5.55112e-17
307 1 31.6141 158.137 -5.55112e-17
308 1 164.783 45.0842 -5.55112e-17
309 2 90.8608 153.313 -5.55112e-17
310 1 10.6924 5.02254 -5.55112e-17
311 1 69.6319 80.2854 -5.55112e-17
312 1 165.581 137.589 -5.55112e-17
313 2 138.204 24.066 -5.55112e-17
314 1 79.1702 90.7664 -5.55112e-17
315 1 122.646 146.496 -5.55112e-17
316 1 49.2774 14.3313 -5.55112e-17
317 1 16.0608 151.32 -5.55112e-17
318 1 123.238 189.326 -5.55112e-17
319 1 63.209 11.8303 -5.55112e-17
320 1 110.323 77.4837 -5.55112e-17
321 1 67.4158 14.4879 -5.55112e-17
322 1 142.155 132.645 -5.55112e-17
323 1 155.517 148.685 -5.55112e-17
324 1 81.5704 46.5881 -5.55112e-17
325 1 139.298 147.469 -5.55112e-17
326 1 96.2026 146.741 -5.55112e-17
327 2 124.16 172.798 -5.55112e-17
328 1 202.786 38.1579 -5.55112e-17
329 2 19.7043 143.932 -5.55112e-17
330 1 5.99967 147.62 -5.55112e-17
331 1 167.391 182.847 -5.55112e-17
332 2 116.558 119.937 -5.55112e-17
333 1 51.752 16.1305 -5.55112e-17
334 1 97.4635 176.765 -5.55112e-17
335 1 213.603 200.151 -5.55112e-17
336 1 171.116 116.204 -5.55112e-17
337 1 145.13 207.282 -5.55112e-17
338 1 167.847 24.2633 -5.55112e-17
339 1 93.0908 73.8001 -5.55112e-17
340 1 177.368 134.957 -5.55112e-17
341 1 143.568 177.645 -5.55112e-17
342 1 160.749 193.529 -5.55112e-17
343 1 164.383 79.2863 -5.55112e-17
344 1 85.8585 151.519 -5.55112e-17
345 1 36.5371 17.3253 -5.55112e-17
346 1 9.53595 164.454 -5.55112e-17
347 1 90.1914 103.863 -5.55112e-17
348 1 120.441 155.695 -5.55112e-17
349 1 49.6377 33.5089 -5.55112e-17
350 2 62.4647 50.5458 -5.55112e-17
351 1 172.348 38.3243 -5.55112e-17
352 1 16.8288 142.795 -5.55112e-17
353 1 37.813 211.705 -5.55112e-17
354 1 164.794 168.757 -5.55112e-17
355 1 93.4005 146.318 -5.55112e-17
356 1 18.6604 6.00149 -5.55112e-17
357 1 37.7811 173.175 -5.55112e-17
358 1 204.369 197.958 -5.55112e-17
359 1 208.585 134.667 -5.55112e-17
360 1 48.6187 126.59 -5.55112e-17
361 1 104.785 204.16 -5.55112e-17
362 1 204.376 216.6 -5.55112e-17
363 1 179.88 187.737 -5.55112e-17
364 2 177.356 120.728 -5.55112e-17
365 1 172.971 81.9997 -5.55112e-17
366 1 125.375 150.196 -5.55112e-17
367 1 44.2302 62.8627 -5.55112e-17
368 1 202.936 202.241 -5.55112e-17
369 2 101.05 207.607 -5.55112e-17
370 1 21.0909 7.34421 -5.55112e-17
371 1 25.3948 130.311 -5.55112e-17
372 2 0.287793 70.15 -5.55112e-17
373 2 157.091 1.97098 -5.55112e-17
374 1 174.42 50.2103 -5.55112e-17
375 1 193.715 103.137 -5.55112e-17
376 1 48.6833 171.286 -5.55112e-17
377 1 219 91.1311 -5.55112e-17
378 1 72.235 157.268 -5.55112e-17
379 1 15.6929 91.3551 -5.55112e-17
380 1 175.339 136.621 -5.55112e-17
381 1 11.6271 189.481 -5.55112e-17
382 1 58.5094 44.9353 -5.55112e-17
383 1 142.835 79.3942 -5.55112e-17
384 1 24.9726 39.1914 -5.55112e-17
385 1 191.881 124.894 -5.55112e-17
386 2 67.9579 42.5094 -5.55112e-17
387 1 125.504 211.939 -5.55112e-17
388 1 99.3319 87.6102 -5.55112e-17
389 1 84.9981 179.543 -5.55112e-17
390 2 212.323 164.824 -5.55112e-17
391 2 199.352 12.6012 -5.55112e-17
392 1 69.309 189.133 -5.55112e-17
393 1 11.8001 20.1521 -5.55112e-17
394 1 65.215 122.66 -5.55112e-17
395 1 61.9522 202.472 -5.55112e-17
396 1 214.27 167.142 -5.55112e-17
397 1 130.896 56.2405 -5.55112e-17
398 1 9.17676 184.267 -5.55112e-17
399 1 15.7576 217.147 -5.55112e-17
400 1 107.828 34.814 -5.55112e-17
401 1 126.839 171.195 -5.55112e-17
402 2 212.249 154.448 -5.55112e-17
403 1 9.76415 16.054 -5.55112e-17
404 1 22.566 108.36 -5.55112e-17
405 1 14.6408 197.042 -5.55112e-17
406 1 181.006 44.0355 -5.55112e-17
407 2 36.1725 41.8196 -5.55112e-17
408 1 55.7041 41.9885 -5.55112e-17
409 1 172.647 123.353 -5.55112e-17
410 1 45.9091 213.348 -5.55112e-17
411 1 173.773 166.3 -5.55112e-17
412 1 120.009 75.7254 -5.55112e-17
413 1 35.3315 130.195 -5.55112e-17
414 1 15.8983 214.485 -5.55112e-17
415 1 169.373 149.989 -5.55112e-17
416 1 68.8099 48.0125 -5.55112e-17
417 1 112.308 91.5513 -5.55112e-17
418 2 197.426 208.037 -5.55112e-17
419 1 119.969 145.782 -5.55112e-17
420 2 162.059 101.459 -5.55112e-17
421 1 33.8311 112.855 -5.55112e-17
422 1 152.588 204.629 -5.55112e-17
423 2 152.505 217.384 -5.55112e-17
424 1 106.554 166.431 -5.55112e-17
425 1 137.324 149.018 -5.55112e-17
426 1 153.871 115.266 -5.55112e-17
427 1 94.7209 120.057 -5.55112e-17
428 1 51.8487 176.282 -5.55112e-17
429 1 149.954 121.413 -5.55112e-17
430 1 169.842 26.0308 -5.55112e-17
431 1 158.541 172.576 -5.55112e-17
432 1 169.367 56.2695 -5.55112e-17
433 1 116.041 149.269 -5.55112e-17
434 1 59.0362 31.3613 -5.55112e-17
435 1 158.626 161.907 -5.55112e-17
436 1 29.5133 30.5822 -5.55112e-17
437 1 188.624 134.209 -5.55112e-17
438 2 111.154 50.5347 -5.55112e-17
439 1 93.8555 13.9797 -5.55112e-17
440 1 212.889 93.1653 -5.55112e-17
441 1 188.482 171.275 -5.55112e-17
442 1 77.7261 210.772 -5.55112e-17
443 1 209.149 95.3494 -5.55112e-17
444 1 203.925 102.486 -5.55112e-17
445 1 118.177 59.2002 -5.55112e-17
446 1 188.085 116.273 -5.55112e-17
447 1 40.2218 172.541 -5.55112e-17
448 1 85.4983 26.2037 -5.55112e-17
449 1 148.226 119.794 -5.55112e-17
450 1 123.181 6.3955 -5.55112e-17
451 1 185.853 18.1555 -5.55112e-17
452 1 146.004 129.376 -5.55112e-17
453 1 187.502 173.841 -5.55112e-17
454 1 200.661 10.2388 -5.55112e-17
455 1 70.4586 82.6876 -5.55112e-17
456 1 163.962 10.7079 -5.55112e-17
457 1 68.5524 74.3866 -5.55112e-17
458 1 163.226 203.434 -5.55112e-17
459 1 62.5094 40.9696 -5.55112e-17
460 1 180.749 91.6462 -5.55112e-17
461 1 183.909 177.25 -5.55112e-17
462 1 52.0801 119.194 -5.55112e-17
463 1 119.854 47.586 -5.55112e-17
464 1 127.96 14.8895 -5.55112e-17
465 1 140.987 130.443 -5.55112e-17
466 1 38.8246 165.833 -5.55112e-17
467 1 39.0393 101.609 -5.55112e-17
468 1 182.846 212.37 -5.55112e-17
469 1 36.9944 63.9274 -5.55112e-17
470 1 58.1724 42.3597 -5.55112e-17
471 1 135.554 183.852 -5.55112e-17
472 1 46.2504 117.571 -5.55112e-17
473 1 89.5715 126.299 -5.55112e-17
474 1 86.401 143.9 -5.55112e-17
475 1 126.037 200.787 -5.55112e-17
476 2 181.331 12.3552 -5.55112e-17
477 1 214.084 107.428 -5.55112e-17
478 1 4.47154 184.557 -5.55112e-17
479 1 218.27 44.5979 -5.55112e-17
480 1 85.2838 43.1786 -5.55112e-17
481 1 214.744 119.409 -5.55112e-17
482 1 110.593 155.121 -5.55112e-17
483 1 127.362 158.382 -5.55112e-17
484 2 85.1829 74.3238 -5.55112e-17
485 1 69.6771 197.575 -5.55112e-17
486 1 81.0459 42.1733 -5.55112e-17
487 1 71.0197 9.09028 -5.55112e-17
488 1 56.5127 75.4424 -5.55112e-17
489 1 201.445 98.0221 -5.55112e-17
490 1 5.42276 36.1717 -5.55112e-17
491 1 175.508 74.0767 -5.55112e-17
492 1 180.71 141.299 -5.55112e-17
493 1 142.794 214.667 -5.55112e-17
494 1 184.022 16.1179 -5.55112e-17
495 1 137.486 62.0288 -5.55112e-17
496 2 77.3335 205.603 -5.55112e-17
497 1 29.7816 212.364 -5.55112e-17
498 1 114.931 127.434 -5.55112e-17
499 2 116.529 191.858 -5.55112e-17
500 1 73.1718 0.0989544 -5.55112e-17
501 2 146.302 12.6063 -5.55112e-17
502 2 131.319 162.367 -5.55112e-17
503 1 173.91 171.963 -5.55112e-17
504 1 124.6 144.974 -5.55112e-17
505 1 199.285 47.9988 -5.55112e-17
506 1 8.14792 156.006 -5.55112e-17
507 1 92.8648 143.764 -5.55112e-17
508 1 158.181 32.3422 -5.55112e-17
509 2 46.6625 69.6921 -5.55112e-17
510 2 159.037 124.141 -5.55112e-17
511 1 2.08112 31.2129 -5.55112e-17
512 2 26.6594 51.2925 -5.55112e-17
513 1 64.2635 206.896 -5.55112e-17
514 1 73.9563 77.9669 -5.55112e-17
515 1 1.70666 193.775 -5.55112e-17
516 1 12.28 165.109 -5.55112e-17
517 1 98.8178 90.3625 -5.55112e-17
518 2 122.483 63.1041 -5.55112e-17
519 1 5.09292 15.1224 -5.55112e-17
520 2 40.5375 25.1335 -5.55112e-17
521 1 147.941 130.988 -5.55112e-17
522 1 11.0076 218.988 -5.55112e-17
523 1 9.72499 96.8961 -5.55112e-17
524 1 38.1639 75.3306 -5.55112e-17
525 1 56.5349 189.545 -5.55112e-17
526 1 178.863 42.9037 -5.55112e-17
527 1 92.0146 0.836335 -5.55112e-17
528 1 146.073 25.8027 -5.55112e-17
529 1 54.4183 165.531 -5.55112e-17
530 1 168.438 94.3515 -5.55112e-17
531 1 47.6857 146.814 -5.55112e-17
532 1 22.0958 179.444 -5.55112e-17
533 1 96.4877 193.659 -5.55112e-17
534 1 104.582 144.405 -5.55112e-17
535 1 185.004 155.337 -5.55112e-17
536 1 168.976 144.908 -5.55112e-17
537 1 204.944 203.344 -5.55112e-17
538 1 179.164 70.9906 -5.55112e-17
539 1 79.7128 0.986072 -5.55112e-17
540 1 115.068 101.237 -5.55112e-17
541 1 91.7008 214.967 -5.55112e-17
542 1 64.8329 5.26575 -5.55112e-17
543 1 106.395 174.567 -5.55112e-17
544 1 160.779 178.821 -5.55112e-17
545 1 48.5465 152.301 -5.55112e-17
546 1 171.254 18.4148 -5.55112e-17
547 1 191.352 146.786 -5.55112e-17
548 1 63.2969 191.937 -5.55112e-17
549 1 47.5611 5.6757 -5.55112e-17
550 2 188.673 137.612 -5.55112e-17
551 2 119.025 110.092 -5.55112e-17
552 2 130.228 167.74 -5.55112e-17
553 1 107.817 15.2106 -5.55112e-17
554 1 24.6192 96.7954 -5.55112e-17
555 2 12.6984 90.7713 -5.55112e-17
556 1 168.513 202.333 -5.55112e-17
557 1 78.5162 26.2667 -5.55112e-17
558 1 151.245 149.519 -5.55112e-17
559 1 208.015 30.9023 -5.55112e-17
560 1 132.066 98.517 -5.55112e-17
561 1 160.799 160.688 -5.55112e-17
562 1 167.829 154.242 -5.55112e-17
563 2 181.586 199.145 -5.55112e-17
564 1 2.79497 60.6864 -5.55112e-17
565 1 75.7278 218.584 -5.55112e-17
566 1 63.1356 43.4488 -5.55112e-17
567 1 191.084 109.088 -5.55112e-17
568 1 84.7687 169.704 -5.55112e-17
569 1 90.6194 181.575 -5.55112e-17
570 1 135.488 138.739 -5.55112e-17
571 1 184.786 192.664 -5.55112e-17
572 1 76.841 73.8751 -5.55112e-17
573 1 174.163 42.4834 -5.55112e-17
574 1 192.626 141.04 -5.55112e-17
575 1 5.75069 80.415 -5.55112e-17
576 1 153.232 118.019 -5.55112e-17
577 1 181.594 15.4415 -5.55112e-17
578 1 123.412 213.306 -5.55112e-17
579 1 37.7536 190.265 -5.55112e-17
580 1 135.978 105.263 -5.55112e-17
581 1 169.486 169.324 -5.55112e-17
582 1 48.6552 51.0488 -5.55112e-17
583 1 189.468 6.53703 -5.55112e-17
584 2 8.43556 161.844 -5.55112e-17
585 1 84.6603 105.106 -5.55112e-17
586 1 143.247 182.486 -5.55112e-17
587 1 14.8526 64.5042 -5.55112e-17
588 1 30.2342 180.428 -5.55112e-17
589 1 127.094 3.6168 -5.55112e-17
590 1 80.745 17.98 -5.55112e-17
591 1 89.5121 164.204 -5.55112e-17
592 1 20.7751 113.964 -5.55112e-17
593 1 21.4552 194.838 -5.55112e-17
594 1 209.659 184.391 -5.55112e-17
595 1 98.7121 75.1728 -5.55112e-17
596 1 38.0918 30.5998 -5.55112e-17
597 2 204.179 19.2776 -5.55112e-17
598 1 184.904 213.787 -5.55112e-17
599 1 50.4305 210.42 -5.55112e-17
600 1 132.533 17.7666 -5.55112e-17
601 1 72.725 193.467 -5.55112e-17
602 1 109.076 29.4139 -5.55112e-17
603 1 16.1461 194.672 -5.55112e-17
604 1 104.257 10.6847 -5.55112e-17
605 2 125.167 114.898 -5.55112e-17
606 1 137.914 195.854 -5.55112e-17
607 2 118.053 179.778 -5.55112e-17
608 1 114.584 106.574 -5.55112e-17
609 1 51.7306 187.186 -5.55112e-17
610 1 190.78 160.713 -5.55112e-17
611 1 43.1228 164.346 -5.55112e-17
612 1 36.5833 54.7806 -5.55112e-17
613 1 196.681 156.937 -5.55112e-17
614 2 157.444 214.78 -5.55112e-17
615 1 126.927 217.882 -5.55112e-17
616 1 178.962 133.027 -5.55112e-17
617 1 54.5963 204.342 -5.55112e-17
618 1 200.338 180.155 -5.55112e-17
619 1 183.742 77.0939 -5.55112e-17
620 1 159.353 57.2659 -5.55112e-17
621 1 179.259 61.5117 -5.55112e-17
622 1 117.638 212.316 -5.55112e-17
623 1 194.196 211.901 -5.55112e-17
624 1 30.3597 195.912 -5.55112e-17
625 1 185.25 122.968 -5.55112e-17
626 1 121.02 172.568 -5.55112e-17
627 1 38.8056 115.583 -5.55112e-17
628 1 55.9983 44.6273 -5.55112e-17
629 1 68.095 104.367 -5.55112e-17
630 2 182.045 27.358 -5.55112e-17
631 1 48.9925 67.3903 -5.55112e-17
632 1 49.3055 101.681 -5.55112e-17
633 1 34.6584 201.935 -5.55112e-17
634 1 178.774 93.2522 -5.55112e-17
635 1 139.377 101.954 -5.55112e-17
636 1 14.0572 93.1474 -5.55112e-17
637 1 15.817 56.7571 -5.55112e-17
638 1 3.8148 41.8143 -5.55112e-17
639 2 27.4944 40.846 -5.55112e-17
640 1 149.454 138.877 -5.55112e-17
641 1 168.235 111.783 -5.55112e-17
642 1 195.984 74.5752 -5.55112e-17
643 2 190.635 43.4749 -5.55112e-17
644 1 82.6126 180.59 -5.55112e-17
645 1 109.857 17.1104 -5.55112e-17
646 2 20.0952 173.955 -5.55112e-17
647 1 126.447 10.5594 -5.55112e-17
648 1 129.867 91.8453 -5.55112e-17
649 2 202.348 123.769 -5.55112e-17
650 1 217.561 181.014 -5.55112e-17
651 1 196.339 131.883 -5.55112e-17
652 1 170.373 23.6731 -5.55112e-17
653 1 136.407 169.322 -5.55112e-17
654 1 27.02 29.9193 -5.55112e-17
655 2 186.122 86.6215 -5.55112e-17
656 1 209.633 142.504 -5.55112e-17
657 2 99.5058 22.7548 -5.55112e-17
658 1 18.883 28.7358 -5.55112e-17
659 2 196.758 186.797 -5.55112e-17
660 1 78.8696 37.8699 -5.55112e-17
661 1 25.7044 121.92 -5.55112e-17
662 1 52.2263 135.849 -5.55112e-17
663 1 82.0731 10.4715 -5.55112e-17
664 1 179.233 58.6485 -5.55112e-17
665 1 149.562 64.0844 -5.55112e-17
666 2 68.2203 194.849 -5.55112e-17
667 1 154.537 50.3472 -5.55112e-17
668 2 84.3123 108.012 -5.55112e-17
669 1 67.75 60.0833 -5.55112e-17
670 1 104.453 0.765969 -5.55112e-17
671 2 79.6145 200.767 -5.55112e-17
672 1 193.218 3.15161 -5.55112e-17
673 1 42.5592 22.8382 -5.55112e-17
674 1 207.181 173.594 -5.55112e-17
675 1 137.118 55.1869 -5.55112e-17
676 1 149.702 112.881 -5.55112e-17
677 1 118.524 172.005 -5.55112e-17
678 1 130.572 31.3591 -5.55112e-17
679 2 186.613 6.14604 -5.55112e-17
680 1 28.8916 3.49176 -5.55112e-17
681 2 143.611 20.6472 -5.55112e-17
682 1 185.924 31.0664 -5.55112e-17
683 1 57.3906 39.9475 -5.55112e-17
684 1 134.857 155.665 -5.55112e-17
685 1 204.567 48.7332 -5.55112e-17
686 1 40.7106 116.741 -5.55112e-17
687 1 152.836 172.694 -5.55112e-17
688 1 148.956 75.639 -5.55112e-17
689 2 71.6303 37.3427 -5.55112e-17
690 1 80.6357 27.8397 -5.55112e-17
691 1 28.2069 55.3554 -5.55112e-17
692 1 154.212 156.981 -5.55112e-17
693 1 98.1732 5.65583 -5.55112e-17
694 1 24.2847 183.946 -5.55112e-17
695 1 177.243 87.1034 -5.55112e-17
696 1 163.453 64.2557 -5.55112e-17
697 1 138.724 159.769 -5.55112e-17
698 1 126.753 79.9905 -5.55112e-17
699 1 190.031 173.176 -5.55112e-17
700 1 18.0218 205.401 -5.55112e-17
701 1 30.7483 12.3189 -5.55112e-17
702 1 88.9721 115.413 -5.55112e-17
703 2 186.371 129.513 -5.55112e-17
704 1 96.4745 196.236 -5.55112e-17
705 2 198.885 79.3517 -5.55112e-17
706 1 114.993 161.337 -5.55112e-17
707 1 128.802 51.7509 -5.55112e-17
708 1 27.5838 147.646 -5.55112e-17
709 1 144.647 202.433 -5.55112e-17
710 1 185.024 167.761 -5.55112e-17
711 1 146.021 85.5844 -5.55112e-17
712 1 184.958 181.732 -5.55112e-17
713 1 182.625 104.432 -5.55112e-17
714 1 141.271 38.3297 -5.55112e-17
715 1 70.0677 212.487 -5.55112e-17
716 1 78.2465 159.791 -5.55112e-17
717 1 199.43 67.366 -5.55112e-17
718 1 167.105 175.985 -5.55112e-17
719 2 65.0111 92.7379 -5.55112e-17
720 1 75.3563 67.5143 -5.55112e-17
721 1 207.29 106.505 -5.55112e-17
722 1 91.1955 59.7893 -5.55112e-17
723 2 12.3183 25.8716 -5.55112e-17
724 1 2.28375 204.761 -5.55112e-17
725 1 33.1457 81.6622 -5.55112e-17
726 1 45.5339 60.7389 -5.55112e-17
727 1 171.874 191.296 -5.55112e-17
728 2 213.059 117.129 -5.55112e-17
729 1 108.796 175.211 -5.55112e-17
730 1 61.1237 184.434 -5.55112e-17
731 1 76.3718 193.632 -5.55112e-17
732 1 80.9126 25.1708 -5.55112e-17
733 1 37.9766 26.4959 -5.55112e-17
734 1 214.624 13.0531 -5.55112e-17
735 1 18.0653 13.9837 -5.55112e-17
736 2 24.7369 67.0857 -5.55112e-17
737 1 31.8218 109.125 -5.55112e-17
738 1 213.631 194.925 -5.55112e-17
739 1 115.571 156.841 -5.55112e-17
740 1 63.3599 170.301 -5.55112e-17
741 2 203.025 41.3097 -5.55112e-17
742 1 37.753 44.3058 -5.55112e-17
743 1 46.5154 87.9924 -5.55112e-17
744 2 193.238 152.504 -5.55112e-17
745 1 130.865 0.898726 -5.55112e-17
746 1 217.244 3.04343 -5.55112e-17
747 2 200.536 17.5606 -5.55112e-17
748 1 40.2918 203.118 -5.55112e-17
749 1 201.87 217.464 -5.55112e-17
750 1 17.0959 135.763 -5.55112e-17
751 1 30.7697 44.9594 -5.55112e-17
752 1 152.578 162.124 -5.55112e-17
753 1 110.222 145.882 -5.55112e-17
754 1 198.198 202.909 -5.55112e-17
755 1 129.576 217.969 -5.55112e-17
756 2 148.481 182.818 -5.55112e-17
757 1 192.844 193.383 -5.55112e-17
758 1 5.47993 174.353 -5.55112e-17
759 1 92.3465 134.258 -5.55112e-17
760 1 115.612 66.5742 -5.55112e-17
761 1 121.907 196.705 -5.55112e-17
762 1 17.667 69.1688 -5.55112e-17
763 1 60.7592 102.896 -5.55112e-17
764 2 140.747 172.035 -5.55112e-17
765 1 47.5356 27.7651 -5.55112e-17
766 1 106.12 32.8656 -5.55112e-17
767 1 95.5775 109.542 -5.55112e-17
768 1 187.638 204.715 -5.55112e-17
769 1 87.2785 50.135 -5.55112e-17
770 2 89.9109 120.184 -5.55112e-17
771 1 165.741 210.35 -5.55112e-17
772 1 103.967 67.0892 -5.55112e-17
773 1 120.062 181.927 -5.55112e-17
774 1 119.099 107.218 -5.55112e-17
775 1 111.491 19.0263 -5.55112e-17
776 1 31.3403 205.583 -5.55112e-17
777 1 168.503 195.591 -5.55112e-17
778 1 209.657 205.591 -5.55112e-17
779 1 169.354 9.73439 -5.55112e-17
780 1 171.922 130.16 -5.55112e-17
781 1 80.1859 122.937 -5.55112e-17
782 1 190.79 32.2326 -5.55112e-17
783 1 151.111 13.8263 -5.55112e-17
784 2 208.237 98.9633 -5.55112e-17
785 1 135.11 196.321 -5.55112e-17
786 1 121.965 174.885 -5.55112e-17
787 1 172.659 22.9749 -5.55112e-17
788 1 153.106 41.7112 -5.55112e-17
789 2 166.833 104.143 -5.55112e-17
790 1 74.0057 61.9622 -5.55112e-17
791 2 55.8814 168.155 -5.55112e-17
792 2 211.697 5.2161 -5.55112e-17
793 2 140.246 66.0286 -5.55112e-17
794 1 96.8522 213.538 -5.55112e-17
795 1 159.863 54.9894 -5.55112e-17
796 1 90.5657 35.6203 -5.55112e-17
797 1 164.964 126.66 -5.55112e-17
798 2 205.41 28.4523 -5.55112e-17
799 2 4.65519 91.5844 -5.55112e-17
800 2 93.8429 4.05334 -5.55112e-17
801 1 54.5099 112.704 -5.55112e-17
802 1 98.5157 99.9967 -5.55112e-17
803 1 189.252 67.7251 -5.55112e-17
804 2 91.1706 47.168 -5.55112e-17
805 1 0.712796 125.567 -5.55112e-17
806 1 50.7028 150.883 -5.55112e-17
807 2 90.9626 92.5886 -5.55112e-17
808 1 62.4061 80.4422 -5.55112e-17
809 2 6.27626 120.61 -5.55112e-17
810 1 132.928 187.957 -5.55112e-17
811 1 211.931 209.317 -5.55112e-17
812 1 129.127 24.2282 -5.55112e-17
813 2 151.321 100.387 -5.55112e-17
814 1 89.0122 90.4938 -5.55112e-17
815 1 90.4504 160.408 -5.55112e-17
816 1 188.456 8.62954 -5.55112e-17
817 1 154.444 10.5854 -5.55112e-17
818 1 48.5926 160.055 -5.55112e-17
819 1 51.7991 164.636 -5.55112e-17
820 1 27.4574 171.76 -5.55112e-17
821 1 105.316 146.875 -5.55112e-17
822 2 13.3155 138.949 -5.55112e-17
823 2 129.414 75.9452 -5.55112e-17
824 1 48.853 55.7256 -5.55112e-17
825 1 17.246 209.898 -5.55112e-17
826 1 15.3907 191.92 -5.55112e-17
827 1 178.425 142.369 -5.55112e-17
828 1 133.603 96.5214 -5.55112e-17
829 1 161.976 218.413 -5.55112e-17
830 1 65.2631 125.13 -5.55112e-17
831 1 190.098 19.2484 -5.55112e-17
832 1 43.7794 88.6354 -5.55112e-17
833 1 25.3174 48.4665 -5.55112e-17
834 1 115.808 29.8272 -5.55112e-17
835 1 37.4664 21.4718 -5.55112e-17
836 1 12.7617 44.9892 -5.55112e-17
837 1 22.7047 71.9754 -5.55112e-17
838 1 156.041 202.516 -5.55112e-17
839 2 196.341 176.018 -5.55112e-17
840 1 136.911 27.0245 -5.55112e-17
841 2 75.6958 181.402 -5.55112e-17
842 1 85.8927 64.1867 -5.55112e-17
843 2 176.889 147.762 -5.55112e-17
844 1 34.5093 194.267 -5.55112e-17
845 1 93.7355 172.944 -5.55112e-17
846 1 133.714 181.975 -5.55112e-17
847 1 100.772 179.894 -5.55112e-17
848 1 135.896 74.8911 -5.55112e-17
849 1 187.341 146.098 -5.55112e-17
850 1 218.446 127.799 -5.55112e-17
851 1 68.8285 33.0113 -5.55112e-17
852 1 139.427 197.672 -5.55112e-17
853 1 81.0626 145.047 -5.55112e-17
854 1 119.253 115.323 -5.55112e-17
855 1 113.017 78.9737 -5.55112e-17