ITEM: TIMESTEP
0
ITEM: NUMBER OF ATOMS
7200
ITEM: BOX BOUNDS xy xz yz pp pp pp
0.0000000000000000e+00 2.1900000000000000e+02 0.0000000000000000e+00
0.0000000000000000e+00 2.1900000000000000e+02 0.0000000000000000e+00
-3.6499999999999999e-01 3.6499999999999999e-01 0.0000000000000000e+00
ITEM: ATOMS id type x y z
1 1 67.5303 134.501 -5.55112e-17
2 1 183.187 108.729 -5.55112e-17
3 1 13.9551 157.423 -5.55112e-17
4 1 6.0349 85.2711 -5.55112e-17
5 1 215.473 157.63 -5.55112e-17
6 1 117.318 210.699 -5.55112e-17
7 1 42.5641 52.1861 -5.55112e-17
8 2 149.2 83.2226 -5.55112e-17
9 1 203.466 9.71541 -5.55112e-17
10 2 58.4208 193.597 -5.55112e-17
11 1 114.755 14.8705 -5.55112e-17
12 1 128.981 77.3845 -5.55112e-17
13 2 51.0908 79.0828 -5.55112e-17
14 1 65.3348 18.0458 -5.55112e-17
15 1 136.745 105.385 -5.55112e-17
16 2 60.9006 172.335 -5.55112e-17
17 1 114.16 30.6197 -5.55112e-17
18 2 31.048 78.2298 -5.55112e-17
19 1 106.943 52.3268 -5.55112e-17
20 1 144.394 103.248 -5.55112e-17
21 1 42.101 5.6295 -5.55112e-17
22 2 49.8619 147.689 -5.55112e-17
23 2 16.1667 56.539 -5.55112e-17
24 1 159.389 99.2535 -5.55112e-17
25 1 75.8728 182.539 -5.55112e-17
26 2 86.4184 96.6095 -5.55112e-17
27 1 155.535 174.066 -5.55112e-17
28 2 24.8346 158.773 -5.55112e-17
29 1 53.6848 46.8094 -5.55112e-17
30 1 139.474 88.2824 -5.55112e-17
31 1 210.938 90.7035 -5.55112e-17
32 1 58.0302 103.748 -5.55112e-17
33 1 157.365 154.379 -5.55112e-17
34 1 61.4156 77.5751 -5.55112e-17
35 1 177.31 69.1717 -5.55112e-17
36 1 61.908 75.0757 -5.55112e-17
37 2 136.059 140.487 -5.55112e-17
38 1 197.568 74.4246 -5.55112e-17
39 1 122.064 138.079 -5.55112e-17
40 1 165.349 164.352 -5.55112e-17
41 1 120.442 181.702 -5.55112e-17
42 1 102.783 36.561 -5.55112e-17
43 1 135.425 60.3657 -5.55112e-17
44 1 107.173 23.5818 -5.55112e-17
45 1 214.507 84.8728 -5.55112e-17
46 1 28.3736 203.509 -5.55112e-17
47 1 88.6956 172.282 -5.55112e-17
48 2 47.9302 86.2931 -5.55112e-17
49 1 76.8788 110.072 -5.55112e-17
50 1 46.2514 197.363 -5.55112e-17
51 1 181.383 34.4836 -5.55112e-17
52 1 203.515 133.042 -5.55112e-17
53 1 156.984 27.4703 -5.55112e-17
54 1 26.8258 119.688 -5.55112e-17
55 1 23.6551 48.5087 -5.55112e-17
56 1 117.183 139.905 -5.55112e-17
57 2 68.0026 214.406 -5.55112e-17
58 1 35.4345 40.6002 -5.55112e-17
59 1 29.8966 151.916 -5.55112e-17
60 2 151.608 147.091 -5.55112e-17
61 2 36.3793 202.552 -5.55112e-17
62 1 12.5149 159.475 -5.55112e-17
63 1 111.903 197.863 -5.55112e-17
64 1 134.145 38.9813 -5.55112e-17
65 1 213.698 114.158 -5.55112e-17
66 1 128.88 133.913 -5.55112e-17
67 1 95.5137 139.557 -5.55112e-17
68 1 66.881 116.356 -5.55112e-17
69 1 140.985 173.897 -5.55112e-17
70 1 58.872 111.171 -5.55112e-17
71 1 7.41269 125.76 -5.55112e-17
72 1 172.063 60.8311 -5.55112e-17
73 1 187.904 186.025 -5.55112e-17
74 1 207.552 21.6942 -5.55112e-17
75 2 93.6619 1.39787 -5.55112e-17
76 1 17.8814 4.5798 -5.55112e-17
77 1 35.9419 21.822 -5.55112e-17
78 1 124.64 117.375 -5.55112e-17
79 2 126.694 1.10323 -5.55112e-17
80 1 75.0475 105.969 -5.55112e-17
81 1 110.234 140.713 -5.55112e-17
82 1 53.6024 141.517 -5.55112e-17
83 2 129.742 182.114 -5.55112e-17
84 1 179.604 80.8967 -5.55112e-17
85 1 24.0147 44.1155 -5.55112e-17
86 1 127.924 142.086 -5.55112e-17
87 1 217.374 217.487 -5.55112e-17
88 1 18.8695 35.0717 -5.55112e-17
89 2 43.9935 3.21989 -5.55112e-17
90 2 190.429 187.485 -5.55112e-17
91 1 149.488 90.4766 -5.55112e-17
92 2 168.767 21.3028 -5.55112e-17
93 1 142.213 15.2446 -5.55112e-17
94 2 202.305 12.3694 -5.55112e-17
95 1 33.7078 194.891 -5.55112e-17
96 1 130.621 95.345 -5.55112e-17
97 1 97.3441 5.0696 -5.55112e-17
98 1 125.607 54.9316 -5.55112e-17
99 1 178.716 21.5138 -5.55112e-17
100 1 176.567 9.35783 -5.55112e-17
101 1 114.504 12.2299 -5.55112e-17
102 1 25.1962 46.3591 -5.55112e-17
103 1 58.2644 80.5263 -5.55112e-17
104 1 68.5065 109.159 -5.55112e-17
105 1 142.385 200.894 -5.55112e-17
106 1 78.1594 102.461 -5.55112e-17
107 2 146.532 101.565 -5.55112e-17
108 1 36.5769 210.322 -5.55112e-17
109 1 54.6463 89.0136 -5.55112e-17
110 1 107.788 62.8608 -5.55112e-17
111 1 60.9217 20.9072 -5.55112e-17
112 1 94.8719 137.22 -5.55112e-17
113 1 100.672 44.7953 -5.55112e-17
114 1 158.896 23.56 -5.55112e-17
115 1 51.2159 163.211 -5.55112e-17
116 2 214.066 133.903 -5.55112e-17
117 1 201.227 216.394 -5.55112e-17
118 1 164.855 68.284 -5.55112e-17
119 2 58.0866 98.5269 -5.55112e-17
120 1 53.6528 199.44 -5.55112e-17
121 1 152.013 83.9277 -5.55112e-17
122 1 103.06 15.0101 -5.55112e-17
123 1 136.75 75.7034 -5.55112e-17
124 1 154.756 201.155 -5.55112e-17
125 1 141.502 117.63 -5.55112e-17
126 1 111.491 65.3181 -5.55112e-17
127 1 163.729 78.4605 -5.55112e-17
128 1 175.547 137.125 -5.55112e-17
129 1 7.11195 104.385 -5.55112e-17
130 1 83.6466 128.563 -5.55112e-17
131 1 175.758 153.103 -5.55112e-17
132 2 183.365 2.11514 -5.55112e-17
133 1 126.998 79.0397 -5.55112e-17
134 1 34.9892 86.3483 -5.55112e-17
135 1 78.2592 8.17255 -5.55112e-17
136 1 210.474 201.906 -5.55112e-17
137 1 101.708 136.56 -5.55112e-17
138 1 50.6085 211.898 -5.55112e-17
139 1 202.424 105.835 -5.55112e-17
140 2 142.106 185.91 -5.55112e-17
141 1 205.594 96.9201 -5.55112e-17
142 2 212.194 49.3559 -5.55112e-17
143 1 111.683 80.5303 -5.55112e-17
144 2 43.555 198.891 -5.55112e-17
145 1 172.515 103.052 -5.55112e-17
146 1 99.6201 119.91 -5.55112e-17
147 1 154.088 145.644 -5.55112e-17
148 1 7.03025 201.226 -5.55112e-17
149 1 67.9795 21.5543 -5.55112e-17
150 1 54.2919 37.2585 -5.55112e-17
151 1 25.7941 112.816 -5.55112e-17
152 1 63.2617 104.109 -5.55112e-17
153 2 52.061 6.51616 -5.55112e-17
154 1 148.894 94.671 -5.55112e-17
155 1 108.011 16.8052 -5.55112e-17
156 2 71.5967 115.927 -5.55112e-17
157 1 207.326 104.967 -5.55112e-17
158 1 28.3472 29.6446 -5.55112e-17
159 1 20.8764 136.469 -5.55112e-17
160 1 12.0999 201.831 -5.55112e-17
161 1 1.63674 8.26269 -5.55112e-17
162 1 127.164 126.96 -5.55112e-17
163 1 17.7578 32.7332 -5.55112e-17
164 1 167.001 53.1517 -5.55112e-17
165 1 125.097 121.676 -5.55112e-17
166 2 159.677 60.6691 -5.55112e-17
167 1 175.316 46.9024 -5.55112e-17
168 1 149.003 169.246 -5.55112e-17
169 1 1.08879 102.232 -5.55112e-17
170 1 95.0633 168.46 -5.55112e-17
171 1 146.779 61.0946 -5.55112e-17
172 1 0.110473 17.7478 -5.55112e-17
173 1 46.1874 142.953 -5.55112e-17
174 1 131.588 62.2495 -5.55112e-17
175 2 137.058 160.629 -5.55112e-17
176 1 110.139 70.6775 -5.55112e-17
177 2 70.7178 56.8625 -5.55112e-17
178 1 65.9628 86.6093 -5.55112e-17
179 1 173.036 164.211 -5.55112e-17
180 1 203.603 197.608 -5.55112e-17
181 1 134.657 167.413 -5.55112e-17
182 2 77.4125 20.6266 -5.55112e-17
183 1 76.8415 163.769 -5.55112e-17
184 1 175.986 87.0311 -5.55112e-17
185 2 175.919 20.1338 -5.55112e-17
186 2 208.359 134.03 -5.55112e-17
187 1 92.9697 29.1117 -5.55112e-17
188 1 102.285 170.378 -5.55112e-17
189 1 123.255 174.026 -5.55112e-17
190 2 12.9218 162.454 -5.55112e-17
191 1 77.1347 157.031 -5.55112e-17
192 2 63.2568 109.545 -5.55112e-17
193 2 79.747 172.265 -5.55112e-17
194 1 33.7629 148.989 -5.55112e-17
195 1 145.142 163.349 -5.55112e-17
196 1 168.619 191.629 -5.55112e-17
197 1 74.5279 69.6383 -5.55112e-17
198 2 9.37236 133.104 -5.55112e-17
199 1 210.672 56.9073 -5.55112e-17
200 1 80.3288 6.70547 -5.55112e-17
201 2 71.3981 109.654 -5.55112e-17
202 1 52.8789 210.568 -5.55112e-17
203 1 175.368 81.9888 -5.55112e-17
204 1 188.634 156.689 -5.55112e-17
205 2 191.498 82.5174 -5.55112e-17
206 1 89.3688 132.708 -5.55112e-17
207 1 105.578 30.2563 -5.55112e-17
208 1 32.7568 85.739 -5.55112e-17
209 1 81.7617 2.38592 -5.55112e-17
210 1 9.11412 65.9481 -5.55112e-17
211 2 146.564 156.26 -5.55112e-17
212 1 120.358 112.423 -5.55112e-17
213 1 134.803 103.937 -5.55112e-17
214 1 74.3127 14.3772 -5.55112e-17
215 1 74.7445 202.19 -5.55112e-17
216 1 193.468 139.327 -5.55112e-17
217 1 126.574 186.631 -5.55112e-17
218 2 28.4546 168.362 -5.55112e-17
219 1 155.788 213.621 -5.55112e-17
220 2 107.178 55.4849 -5.55112e-17
221 1 212.899 56.1168 -5.55112e-17
222 1 143.61 146.066 -5.55112e-17
223 1 52.4803 207.981 -5.55112e-17
224 2 10.4649 188.747 -5.55112e-17
225 1 201.343 142.55 -5.55112e-17
226 1 139.084 189.852 -5.55112e-17
227 2 50.9321 17.2826 -5.55112e-17
228 1 138.313 77.6216 -5.55112e-17
229 1 60.9286 135.417 -5.55112e-17
230 1 159.063 131.163 -5.55112e-17
231 1 148.438 122.767 -5.55112e-17
232 1 215.742 90.3441 -5.55112e-17
233 1 110.057 100.285 -5.55112e-17
234 1 133.718 215.998 -5.55112e-17
235 1 20.6261 143.767 -5.55112e-17
236 1 46.208 81.7774 -5.55112e-17
237 1 199.151 8.10916 -5.55112e-17
238 1 147.681 128.01 -5.55112e-17
239 2 17.4564 111.956 -5.55112e-17
240 1 99.7667 5.97849 -5.55112e-17
241 2 187.694 16.8241 -5.55112e-17
242 2 199.058 36.9882 -5.55112e-17
243 2 114.831 27.5933 -5.55112e-17
244 1 97.7773 7.74163 -5.55112e-17
245 1 84.993 58.8561 -5.55112e-17
246 1 126.139 119.303 -5.55112e-17
247 1 210.542 98.8701 -5.55112e-17
248 1 94.8853 4.0961 -5.55112e-17
249 1 23.6571 65.7852 -5.55112e-17
250 2 150.192 30.1583 -5.55112e-17
251 1 153.972 211.976 -5.55112e-17
252 1 195.298 64.3745 -5.55112e-17
253 1 94.7025 61.4434 -5.55112e-17
254 2 76.5241 197.698 -5.55112e-17
255 1 212.356 149.261 -5.55112e-17
256 1 84.586 165.417 -5.55112e-17
257 1 211.972 151.861 -5.55112e-17
258 2 164.549 28.1095 -5.55112e-17
259 1 58.3539 165.634 -5.55112e-17
260 1 127.484 11.3376 -5.55112e-17
261 1 185.703 14.2163 -5.55112e-17
262 1 53.4183 52.452 -5.55112e-17
263 1 12.7613 213.721 -5.55112e-17
264 1 173.025 43.2828 -5.55112e-17
265 1 166.397 23.0007 -5.55112e-17
266 1 155.646 9.6923 -5.55112e-17
267 1 2.50888 64.2556 -5.55112e-17
268 1 21.2755 35.8028 -5.55112e-17
269 1 125.94 94.6116 -5.55112e-17
270 1 141.685 106.331 -5.55112e-17
271 1 12.5606 92.3459 -5.55112e-17
272 1 159.186 201.866 -5.55112e-17
273 1 40.6433 169.099 -5.55112e-17
274 2 113.25 87.9128 -5.55112e-17
275 1 64.0752 4.66599 -5.55112e-17
276 2 53.6759 32.2433 -5.55112e-17
277 2 167.245 121.94 -5.55112e-17
278 1 38.2227 101.434 -5.55112e-17
279 2 110.049 205.255 -5.55112e-17
280 1 60.0413 31.8673 -5.55112e-17
281 1 147.246 25.8957 -5.55112e-17
282 1 165.272 8.30186 -5.55112e-17
283 1 112.816 141.406 -5.55112e-17
284 1 136.518 165.777 -5.55112e-17
285 1 35.8656 12.4543 -5.55112e-17
286 2 33.8887 214.743 -5.55112e-17
287 1 82.3099 135.575 -5.55112e-17
288 1 21.6112 57.328 -5.55112e-17
289 1 72.0993 54.2932 -5.55112e-17
290 1 150.903 193.204 -5.55112e-17
291 1 158.277 144.453 -5.55112e-17
292 2 20.0906 181.093 -5.55112e-17
293 2 66.0624 194.341 -5.55112e-17
294 1 112.647 40.1208 -5.55112e-17
295 1 124.741 47.8222 -5.55112e-17
296 1 135.082 41.4393 -5.55112e-17
297 1 118.461 144.822 -5.55112e-17
298 1 105.096 198.555 -5.55112e-17
299 1 160.452 106.219 -5.55112e-17
300 2 62.2895 94.5505 -5.55112e-17
301 1 58.9938 44.0123 -5.55112e-17
302 1 127.091 192.725 -5.55112e-17
303 2 198.429 60.0115 -5.55112e-17
304 2 144.757 129.506 -5.55112e-17
305 1 86.0971 99.2895 -5.55112e-17
306 1 51.2978 73.8109 -5.55112e-17
307 1 34.7213 122.258 -5.55112e-17
308 1 161.991 59.1934 -5.55112e-17
309 2 73.5532 184.203 -5.55112e-17
310 1 196.221 217.118 -5.55112e-17
311 1 79.6772 33.4195 -5.55112e-17
312 1 192.293 148.104 -5.55112e-17
313 2 147.336 66.629 -5.55112e-17
314 1 51.8742 135.073 -5.55112e-17
315 1 110.839 150.313 -5.55112e-17
316 1 72.6446 0.976137 -5.55112e-17
317 1 13.3631 99.7477 -5.55112e-17
318 1 100.2 215.461 -5.55112e-17
319 1 50.8311 33.0709 -5.55112e-17
320 1 144.294 99.7718 -5.55112e-17
321 1 88.99 203.777 -5.55112e-17
322 1 138.885 140.516 -5.55112e-17
323 1 188.214 108.031 -5.55112e-17
324 1 81.119 26.7118 -5.55112e-17
325 1 162.784 139.248 -5.55112e-17
326 1 84.7861 151.682 -5.55112e-17
327 2 149.869 186.113 -5.55112e-17
328 1 168.107 40.4747 -5.55112e-17
329 2 47.4627 115.332 -5.55112e-17
330 1 23.9315 102.006 -5.55112e-17
331 1 174.574 176.393 -5.55112e-17
332 2 112.631 104.245 -5.55112e-17
333 1 44.3694 17.508 -5.55112e-17
334 1 139.781 168.656 -5.55112e-17
335 1 12.8695 206.523 -5.55112e-17
336 1 212.38 106.612 -5.55112e-17
337 1 102.549 182.217 -5.55112e-17
338 1 159.665 57.8414 -5.55112e-17
339 1 109.409 217.179 -5.55112e-17
340 1 153.151 141.389 -5.55112e-17
341 1 160.144 158.445 -5.55112e-17
342 1 128.611 144.583 -5.55112e-17
343 1 127.561 29.1802 -5.55112e-17
344 1 63.7996 181.74 -5.55112e-17
345 1 60.373 109.103 -5.55112e-17
346 1 8.79107 127.802 -5.55112e-17
347 1 92.3087 92.4291 -5.55112e-17
348 1 164.071 179.381 -5.55112e-17
349 1 193.436 75.4567 -5.55112e-17
350 2 89.5339 40.7571 -5.55112e-17
351 1 154.955 66.0217 -5.55112e-17
352 1 61.253 182.678 -5.55112e-17
353 1 39.0406 166.501 -5.55112e-17
354 1 167.721 161.668 -5.55112e-17
355 1 58.0823 156.862 -5.55112e-17
356 1 23.5503 36.9571 -5.55112e-17
357 1 62.2788 158.706 -5.55112e-17
358 1 172.039 180.728 -5.55112e-17
359 1 157.865 159.163 -5.55112e-17
360 1 74.571 53.5108 -5.55112e-17
361 1 63.1215 167.941 -5.55112e-17
362 1 168.998 200.855 -5.55112e-17
363 1 163.659 190.559 -5.55112e-17
364 2 116.522 92.4777 -5.55112e-17
365 1 179.11 90.4389 -5.55112e-17
366 1 117.236 161.097 -5.55112e-17
367 1 174.763 7.00709 -5.55112e-17
368 1 196.954 192.333 -5.55112e-17
369 2 115.241 188.02 -5.55112e-17
370 1 15.4333 206.292 -5.55112e-17
371 1 53.7634 136.702 -5.55112e-17
372 2 0.021656 94.3426 -5.55112e-17
373 2 212.48 7.9351 -5.55112e-17
374 1 150.983 88.3568 -5.55112e-17
375 1 37.1447 112.713 -5.55112e-17
376 1 13.4265 152.632 -5.55112e-17
377 1 28.7047 213.036 -5.55112e-17
378 1 74.5927 128.95 -5.55112e-17
379 1 43.1194 60.7397 -5.55112e-17
380 1 177.864 151.528 -5.55112e-17
381 1 13.6933 5.32358 -5.55112e-17
382 1 54.1826 67.2351 -5.55112e-17
383 1 169.76 67.6124 -5.55112e-17
384 1 22.1362 13.9122 -5.55112e-17
385 1 191.501 76.9067 -5.55112e-17
386 2 82.0341 44.0593 -5.55112e-17
387 1 144.452 19.2344 -5.55112e-17
388 1 56.6177 43.8956 -5.55112e-17
389 1 206.643 159.175 -5.55112e-17
390 2 207.346 179.862 -5.55112e-17
391 2 36.4521 37.6895 -5.55112e-17
392 1 41.6576 217.882 -5.55112e-17
393 1 0.692995 34.0394 -5.55112e-17
394 1 102.442 100.97 -5.55112e-17
395 1 16.253 27.7087 -5.55112e-17
396 1 202.743 154.103 -5.55112e-17
397 1 100.966 16.4545 -5.55112e-17
398 1 11.7669 191.373 -5.55112e-17
399 1 19.9663 62.135 -5.55112e-17
400 1 103.04 179.796 -5.55112e-17
401 1 87.8003 176.523 -5.55112e-17
402 2 191.268 179.192 -5.55112e-17
403 1 214.23 54.1357 -5.55112e-17
404 1 35.9102 71.5834 -5.55112e-17
405 1 204.933 29.224 -5.55112e-17
406 1 200.66 68.3394 -5.55112e-17
407 2 18.5749 64.8721 -5.55112e-17
408 1 34.0001 35.9316 -5.55112e-17
409 1 169.119 129.508 -5.55112e-17
410 1 20.583 155.785 -5.55112e-17
411 1 151.798 160.375 -5.55112e-17
412 1 115.305 215.117 -5.55112e-17
413 1 63.1497 156.191 -5.55112e-17
414 1 38.2158 13.8068 -5.55112e-17
415 1 207.885 148.387 -5.55112e-17
416 1 71.9906 200.202 -5.55112e-17
417 1 141.058 93.9871 -5.55112e-17
418 2 184.898 7.0086 -5.55112e-17
419 1 108.259 149.586 -5.55112e-17
420 2 136.908 108.607 -5.55112e-17
421 1 88.0163 103.577 -5.55112e-17
422 1 176.587 23.0449 -5.55112e-17
423 2 158.124 41.0357 -5.55112e-17
424 1 157.165 149.111 -5.55112e-17
425 1 129.112 166.883 -5.55112e-17
426 1 133.297 112.689 -5.55112e-17
427 1 45.5686 84.3599 -5.55112e-17
428 1 71.7085 191.963 -5.55112e-17
429 1 194.474 83.4314 -5.55112e-17
430 1 214.766 60.3218 -5.55112e-17
431 1 120.405 206.561 -5.55112e-17
432 1 161.962 53.8989 -5.55112e-17
433 1 105.096 153.481 -5.55112e-17
434 1 71.6784 30.4935 -5.55112e-17
435 1 177.852 162.111 -5.55112e-17
436 1 41.815 37.5844 -5.55112e-17
437 1 175.616 109.196 -5.55112e-17
438 2 109.636 21.6955 -5.55112e-17
439 1 67.7494 208.914 -5.55112e-17
440 1 2.91655 162.751 -5.55112e-17
441 1 192.667 131.781 -5.55112e-17
442 1 50.772 14.0523 -5.55112e-17
443 1 158.236 104.358 -5.55112e-17
444 1 217.783 101.468 -5.55112e-17
445 1 140.302 7.52567 -5.55112e-17
446 1 131.632 78.4554 -5.55112e-17
447 1 39.2583 144.696 -5.55112e-17
448 1 75.752 7.31437 -5.55112e-17
449 1 131.9 120.355 -5.55112e-17
450 1 139.559 187.301 -5.55112e-17
451 1 170.898 47.5136 -5.55112e-17
452 1 133.492 144.637 -5.55112e-17
453 1 179.355 182.421 -5.55112e-17
454 1 160.389 211.692 -5.55112e-17
455 1 100.218 71.9265 -5.55112e-17
456 1 167.51 27.0126 -5.55112e-17
457 1 97.9065 113.274 -5.55112e-17
458 1 198.132 218.951 -5.55112e-17
459 1 81.3088 68.9261 -5.55112e-17
460 1 48.4604 102.074 -5.55112e-17
461 1 188.514 178.361 -5.55112e-17
462 1 181.863 116.342 -5.55112e-17
463 1 126.645 33.6333 -5.55112e-17
464 1 154.597 194.896 -5.55112e-17
465 1 121.477 159.603 -5.55112e-17
466 1 23.9923 213.789 -5.55112e-17
467 1 17.2152 80.3022 -5.55112e-17
468 1 161.469 218.632 -5.55112e-17
469 1 68.8759 77.6787 -5.55112e-17
470 1 78.0358 37.6493 -5.55112e-17
471 1 128.706 174.283 -5.55112e-17
472 1 48.2042 83.3321 -5.55112e-17
473 1 26.6665 102.848 -5.55112e-17
474 1 88.5313 100.78 -5.55112e-17
475 1 185.162 164.036 -5.55112e-17
476 2 192.587 12.1756 -5.55112e-17
477 1 54.1821 84.6851 -5.55112e-17
478 1 58.4003 125.835 -5.55112e-17
479 1 201.54 80.8387 -5.55112e-17
480 1 85.1647 23.392 -5.55112e-17
481 1 14.8439 94.463 -5.55112e-17
482 1 99.5643 159.51 -5.55112e-17
483 1 141.938 159.829 -5.55112e-17
484 2 87.4186 45.4453 -5.55112e-17
485 1 33.7919 100.853 -5.55112e-17
486 1 81.5738 17.3225 -5.55112e-17
487 1 100.834 196.618 -5.55112e-17
488 1 5.7903 121.419 -5.55112e-17
489 1 211.143 134.725 -5.55112e-17
490 1 205.257 84.1702 -5.55112e-17
491 1 197.38 121.876 -5.55112e-17
492 1 2.64085 128.938 -5.55112e-17
493 1 194.411 212.804 -5.55112e-17
494 1 211.427 38.5883 -5.55112e-17
495 1 198.502 89.6698 -5.55112e-17
496 2 44.1137 189.269 -5.55112e-17
497 1 39.2111 216.942 -5.55112e-17
498 1 104.899 120.85 -5.55112e-17
499 2 136.571 216.455 -5.55112e-17
500 1 25.8568 30.2407 -5.55112e-17
501 2 112.764 216.571 -5.55112e-17
502 2 123.338 143.06 -5.55112e-17
503 1 147.184 183.568 -5.55112e-17
504 1 112.832 148.512 -5.55112e-17
505 1 118.176 18.5198 -5.55112e-17
506 1 22.4231 121.939 -5.55112e-17
507 1 14.1291 129.803 -5.55112e-17
508 1 198.733 216.435 -5.55112e-17
509 2 28.2631 73.2282 -5.55112e-17
510 2 145.816 133.195 -5.55112e-17
511 1 196.484 35.5857 -5.55112e-17
512 2 209.947 59.9262 -5.55112e-17
513 1 56.2567 126.995 -5.55112e-17
514 1 48.5284 19.0887 -5.55112e-17
515 1 204.806 25.2423 -5.55112e-17
516 1 184.035 205.716 -5.55112e-17
517 1 111.834 117.219 -5.55112e-17
518 2 103.52 20.5786 -5.55112e-17
519 1 12.4467 53.2108 -5.55112e-17
520 2 212.825 23.3419 -5.55112e-17
521 1 88.976 110.685 -5.55112e-17
522 1 30.4952 31.2423 -5.55112e-17
523 1 24.7052 68.1302 -5.55112e-17
524 1 99.9597 74.8174 -5.55112e-17
525 1 174.661 121.048 -5.55112e-17
526 1 191.065 64.8424 -5.55112e-17
527 1 75.2507 4.76092 -5.55112e-17
528 1 169.126 28.9009 -5.55112e-17
529 1 56.7555 159.026 -5.55112e-17
530 1 100.111 32.0451 -5.55112e-17
531 1 66.7362 197.504 -5.55112e-17
532 1 206.948 188.254 -5.55112e-17
533 1 133.749 150.609 -5.55112e-17
534 1 96.9603 144.476 -5.55112e-17
535 1 14.251 104.77 -5.55112e-17
536 1 203.055 118.29 -5.55112e-17
537 1 201.297 167.072 -5.55112e-17
538 1 168.693 81.2659 -5.55112e-17
539 1 89.2493 211.762 -5.55112e-17
540 1 103.754 88.5305 -5.55112e-17
541 1 40.8812 59.0477 -5.55112e-17
542 1 67.5325 211.452 -5.55112e-17
543 1 147.432 151.767 -5.55112e-17
544 1 128.964 200.122 -5.55112e-17
545 1 8.03415 150.2 -5.55112e-17
546 1 179.872 41.2989 -5.55112e-17
547 1 82.4981 171.808 -5.55112e-17
548 1 99.9811 8.74446 -5.55112e-17
549 1 51.8552 76.1986 -5.55112e-17
550 2 162.681 121.51 -5.55112e-17
551 2 134.639 157.921 -5.55112e-17
552 2 93.8846 180.687 -5.55112e-17
553 1 122.678 42.3988 -5.55112e-17
554 1 73.4526 101.273 -5.55112e-17
555 2 65.7929 123.9 -5.55112e-17
556 1 148.821 22.1668 -5.55112e-17
557 1 76.3449 12.6339 -5.55112e-17
558 1 148.018 125.42 -5.55112e-17
559 1 187.441 47.5503 -5.55112e-17
560 1 131.339 51.014 -5.55112e-17
561 1 146.624 168.417 -5.55112e-17
562 1 195.477 144.545 -5.55112e-17
563 2 168.03 113.705 -5.55112e-17
564 1 42.0163 67.2873 -5.55112e-17
565 1 60.4215 10.1071 -5.55112e-17
566 1 75.1436 34.1907 -5.55112e-17
567 1 150.677 111.229 -5.55112e-17
568 1 21.9427 114.76 -5.55112e-17
569 1 114.185 185.318 -5.55112e-17
570 1 124.654 124.101 -5.55112e-17
571 1 175.477 203.643 -5.55112e-17
572 1 61.3645 111.751 -5.55112e-17
573 1 177.196 76.73 -5.55112e-17
574 1 41.5861 130.049 -5.55112e-17
575 1 21.088 76.6462 -5.55112e-17
576 1 195.976 98.9086 -5.55112e-17
577 1 203.432 33.2727 -5.55112e-17
578 1 122.816 196.841 -5.55112e-17
579 1 13.1834 167.133 -5.55112e-17
580 1 102.588 139.169 -5.55112e-17
581 1 141.062 154.38 -5.55112e-17
582 1 76.2767 78.9119 -5.55112e-17
583 1 162.507 186.117 -5.55112e-17
584 2 28.6886 117.251 -5.55112e-17
585 1 48.6501 198.393 -5.55112e-17
586 1 137.809 170.741 -5.55112e-17
587 1 99.5607 104.59 -5.55112e-17
588 1 17.257 1.81687 -5.55112e-17
589 1 103.185 17.5288 -5.55112e-17
590 1 70.3894 219 -5.55112e-17
591 1 214.946 162.749 -5.55112e-17
592 1 55.7815 156.186 -5.55112e-17
593 1 209.661 181.765 -5.55112e-17
594 1 181.619 181.338 -5.55112e-17
595 1 82.9532 39.2623 -5.55112e-17
596 1 66.0524 35.8459 -5.55112e-17
597 2 180.369 204.46 -5.55112e-17
598 1 167.178 211.637 -5.55112e-17
599 1 207.84 171.816 -5.55112e-17
600 1 104.897 10.6002 -5.55112e-17
601 1 11.6532 134.883 -5.55112e-17
602 1 97.7514 30.7025 -5.55112e-17
603 1 207.915 203.043 -5.55112e-17
604 1 120.883 1.52961 -5.55112e-17
605 2 85.7434 77.4672 -5.55112e-17
606 1 103.01 202.206 -5.55112e-17
607 2 171.582 147.105 -5.55112e-17
608 1 95.3233 76.7442 -5.55112e-17
609 1 16.0344 6.39464 -5.55112e-17
610 1 214.291 150.897 -5.55112e-17
611 1 202.051 190.567 -5.55112e-17
612 1 218.406 38.2595 -5.55112e-17
613 1 58.7227 150.772 -5.55112e-17
614 2 127.709 179.315 -5.55112e-17
615 1 105.786 18.5988 -5.55112e-17
616 1 201.642 131.275 -5.55112e-17
617 1 127.062 198.245 -5.55112e-17
618 1 201.196 212.155 -5.55112e-17
619 1 178.94 78.355 -5.55112e-17
620 1 140.742 138.806 -5.55112e-17
621 1 197.226 94.2637 -5.55112e-17
622 1 95.1042 214.04 -5.55112e-17
623 1 218.529 12.3176 -5.55112e-17
624 1 24.2468 209.186 -5.55112e-17
625 1 204.816 155.421 -5.55112e-17
626 1 94.2851 191.435 -5.55112e-17
627 1 64.318 74.0994 -5.55112e-17
628 1 33.9737 28.6316 -5.55112e-17
629 1 9.78981 95.291 -5.55112e-17
630 2 151.763 22.4153 -5.55112e-17
631 1 15.5604 87.0551 -5.55112e-17
632 1 49.6373 92.0739 -5.55112e-17
633 1 38.8529 211.459 -5.55112e-17
634 1 1.3829 148.068 -5.55112e-17
635 1 154.918 150.53 -5.55112e-17
636 1 207.944 57.8111 -5.55112e-17
637 1 201.023 58.2899 -5.55112e-17
638 1 172.855 76.6092 -5.55112e-17
639 2 203.519 78.8583 -5.55112e-17
640 1 143.042 152.732 -5.55112e-17
641 1 192.653 85.3399 -5.55112e-17
642 1 31.9824 91.6665 -5.55112e-17
643 2 182.266 42.6955 -5.55112e-17
644 1 68.2882 154.965 -5.55112e-17
645 1 106.719 196.501 -5.55112e-17
646 2 211.966 141.601 -5.55112e-17
647 1 11.2792 185.764 -5.55112e-17
648 1 132.611 102.938 -5.55112e-17
649 2 23.0029 148.478 -5.55112e-17
650 1 204.746 186.849 -5.55112e-17
651 1 218.438 113.413 -5.55112e-17
652 1 153.713 44.0925 -5.55112e-17
653 1 113.779 175.75 -5.55112e-17
654 1 23.3186 21.4709 -5.55112e-17
655 2 183.792 101.032 -5.55112e-17
656 1 27.3936 122.486 -5.55112e-17
657 2 79.5346 207.523 -5.55112e-17
658 1 54.3058 44.4022 -5.55112e-17
659 2 156.462 192.496 -5.55112e-17
660 1 102.591 55.115 -5.55112e-17
661 1 42.9087 116.789 -5.55112e-17
662 1 81.4915 130.118 -5.55112e-17
663 1 32.0021 26.2848 -5.55112e-17
664 1 144.489 16.4707 -5.55112e-17
665 1 139.755 75.4382 -5.55112e-17
666 2 48.4805 180.844 -5.55112e-17
667 1 93.3686 99.2915 -5.55112e-17
668 2 102.1 93.0927 -5.55112e-17
669 1 35.7721 17.7867 -5.55112e-17
670 1 96.4072 173.449 -5.55112e-17
671 2 53.967 176.051 -5.55112e-17
672 1 186.752 11.928 -5.55112e-17
673 1 63.1881 19.6897 -5.55112e-17
674 1 2.51492 32.0623 -5.55112e-17
675 1 128.87 23.5809 -5.55112e-17
676 1 169.349 124.166 -5.55112e-17
677 1 131.317 174.92 -5.55112e-17
678 1 137.768 30.6986 -5.55112e-17
679 2 152.491 33.5417 -5.55112e-17
680 1 202.905 41.7345 -5.55112e-17
681 2 129.335 119.08 -5.55112e-17
682 1 0.606844 48.1248 -5.55112e-17
683 1 68.5925 4.14785 -5.55112e-17
684 1 119.711 154.645 -5.55112e-17
685 1 152.762 38.8968 -5.55112e-17
686 1 28.1502 193.943 -5.55112e-17
687 1 118.63 191.813 -5.55112e-17
688 1 163.159 109.878 -5.55112e-17
689 2 56.837 46.8331 -5.55112e-17
690 1 70.1415 20.1302 -5.55112e-17
691 1 89.8245 66.1136 -5.55112e-17
692 1 130.867 8.19729 -5.55112e-17
693 1 48.8739 142.773 -5.55112e-17
694 1 76.1637 124.623 -5.55112e-17
695 1 145.914 38.6329 -5.55112e-17
696 1 146.461 81.4939 -5.55112e-17
697 1 139.75 201.225 -5.55112e-17
698 1 117.009 65.7069 -5.55112e-17
699 1 180.499 191.676 -5.55112e-17
700 1 205.487 209.473 -5.55112e-17
701 1 54.0272 17.3598 -5.55112e-17
702 1 113.215 128.777 -5.55112e-17
703 2 188.162 144.423 -5.55112e-17
704 1 29.27 218.151 -5.55112e-17
705 2 69.1939 111.891 -5.55112e-17
706 1 165.69 177.485 -5.55112e-17
707 1 114.088 24.7129 -5.55112e-17
708 1 84.777 209.353 -5.55112e-17
709 1 147.163 196.1 -5.55112e-17
710 1 192.228 192.015 -5.55112e-17
711 1 111.189 92.903 -5.55112e-17
712 1 192.407 208.088 -5.55112e-17
713 1 13.545 136.532 -5.55112e-17
714 1 135.629 13.2096 -5.55112e-17
715 1 56.4786 199.338 -5.55112e-17
716 1 39.856 124.014 -5.55112e-17
717 1 51.6272 107.3 -5.55112e-17
718 1 130.882 184.761 -5.55112e-17
719 2 119.744 78.771 -5.55112e-17
720 1 98.7568 64.491 -5.55112e-17
721 1 95.7214 98.5131 -5.55112e-17
722 1 134.041 62.5892 -5.55112e-17
723 2 49.2049 45.6452 -5.55112e-17
724 1 15.9073 49.6776 -5.55112e-17
725 1 29.5123 109.767 -5.55112e-17
726 1 189.635 46.0991 -5.55112e-17
727 1 148.169 204.868 -5.55112e-17
728 2 18.3945 87.7484 -5.55112e-17
729 1 133.725 165.12 -5.55112e-17
730 1 174.262 199.147 -5.55112e-17
731 1 49.5047 190.194 -5.55112e-17
732 1 218.342 9.67491 -5.55112e-17
733 1 205.887 34.4678 -5.55112e-17
734 1 4.09558 30.1356 -5.55112e-17
735 1 40.0315 24.1595 -5.55112e-17
736 2 190.272 74.298 -5.55112e-17
737 1 81.7537 86.4129 -5.55112e-17
738 1 18.0942 167.568 -5.55112e-17
739 1 105.85 156.039 -5.55112e-17
740 1 60.0752 115.864 -5.55112e-17
741 2 188.862 78.2309 -5.55112e-17
742 1 74.5811 43.3472 -5.55112e-17
743 1 202.867 66.9043 -5.55112e-17
744 2 210.666 173.111 -5.55112e-17
745 1 131.141 31.9056 -5.55112e-17
746 1 14.4123 29.3666 -5.55112e-17
747 2 204.767 22.3557 -5.55112e-17
748 1 182.774 193.357 -5.55112e-17
749 1 196.376 210.928 -5.55112e-17
750 1 212.787 164.011 -5.55112e-17
751 1 59.9749 58.7369 -5.55112e-17
752 1 178.003 105.882 -5.55112e-17
753 1 99.0512 150.312 -5.55112e-17
754 1 14.6415 215.6 -5.55112e-17
755 1 83.6521 195.041 -5.55112e-17
756 2 103.733 195.769 -5.55112e-17
757 1 27.39 18.7454 -5.55112e-17
758 1 134.568 148.375 -5.55112e-17
759 1 72.7724 107.132 -5.55112e-17
760 1 95.9192 40.4413 -5.55112e-17
761 1 58.106 161.21 -5.55112e-17
762 1 43.227 23.1199 -5.55112e-17
763 1 114.378 99.6052 -5.55112e-17
764 2 177.658 148.339 -5.55112e-17
765 1 94.1707 63.9439 -5.55112e-17
766 1 114.633 35.2479 -5.55112e-17
767 1 97.2169 78.4647 -5.55112e-17
768 1 9.80266 4.04742 -5.55112e-17
769 1 108.246 75.6835 -5.55112e-17
770 2 113.415 109.603 -5.55112e-17
771 1 143.658 178.391 -5.55112e-17
772 1 102.309 28.8802 -5.55112e-17
773 1 109.087 167.197 -5.55112e-17
774 1 111.021 123.845 -5.55112e-17
775 1 68.6713 7.21549 -5.55112e-17
776 1 38.0326 10.7912 -5.55112e-17
777 1 108.034 181.755 -5.55112e-17
778 1 22.9117 19.1271 -5.55112e-17
779 1 191.94 44.3931 -5.55112e-17
780 1 3.11041 170.637 -5.55112e-17
781 1 127.089 99.7025 -5.55112e-17
782 1 175.523 49.4825 -5.55112e-17
783 1 98.2628 15.5472 -5.55112e-17
784 2 194.954 159.497 -5.55112e-17
785 1 110.638 165.188 -5.55112e-17
786 1 119.02 176.702 -5.55112e-17
787 1 184.956 74.9441 -5.55112e-17
788 1 177.617 45.5898 -5.55112e-17
789 2 143.288 108.82 -5.55112e-17
790 1 109.863 28.3009 -5.55112e-17
791 2 14.1035 121.69 -5.55112e-17
792 2 216.087 13.9333 -5.55112e-17
793 2 115.572 68.2952 -5.55112e-17
794 1 56.5736 188.459 -5.55112e-17
795 1 132.401 53.4117 -5.55112e-17
796 1 130.92 21.9444 -5.55112e-17
797 1 197.889 155.617 -5.55112e-17
798 2 195.671 203.999 -5.55112e-17
799 2 207.688 65.2996 -5.55112e-17
800 2 55.2771 217.456 -5.55112e-17
801 1 102.542 131.837 -5.55112e-17
802 1 124.339 75.5176 -5.55112e-17
803 1 181.994 68.6717 -5.55112e-17
804 2 122.944 204.906 -5.55112e-17
805 1 44.7911 106.401 -5.55112e-17
806 1 11.6723 116.851 -5.55112e-17
807 2 100.543 98.8014 -5.55112e-17
808 1 14.4018 116.475 -5.55112e-17
809 2 57.8907 134.183 -5.55112e-17
810 1 130.069 197.806 -5.55112e-17
811 1 32.8032 5.74415 -5.55112e-17
812 1 132.054 34.3968 -5.55112e-17
813 2 107.773 110.692 -5.55112e-17
814 1 147.032 72.0005 -5.55112e-17
815 1 88.9493 164.16 -5.55112e-17
816 1 200.833 9.97909 -5.55112e-17
817 1 108.075 214.541 -5.55112e-17
818 1 57.1573 101.196 -5.55112e-17
819 1 9.53212 136.466 -5.55112e-17
820 1 45.8563 119.907 -5.55112e-17
821 1 94.4421 151.5 -5.55112e-17
822 2 41.6909 135.442 -5.55112e-17
823 2 139.336 91.7324 -5.55112e-17
824 1 34.6437 108.62 -5.55112e-17
825 1 65.1167 15.3455 -5.55112e-17
826 1 191.1 9.51617 -5.55112e-17
827 1 192.864 108.011 -5.55112e-17
828 1 142.291 123.405 -5.55112e-17
829 1 127.153 210.837 -5.55112e-17
830 1 81.3005 127.52 -5.55112e-17
831 1 217.685 42.8752 -5.55112e-17
832 1 93.8359 87.268 -5.55112e-17
833 1 61.9603 84.0549 -5.55112e-17
834 1 107.107 8.99079 -5.55112e-17
835 1 57.9061 218.374 -5.55112e-17
836 1 11.7751 50.6271 -5.55112e-17
837 1 8.54748 68.386 -5.55112e-17
838 1 97.8317 178.422 -5.55112e-17
839 2 198.592 2.95204 -5.55112e-17
840 1 4.95636 203.074 -5.55112e-17
841 2 63.3509 184.826 -5.55112e-17
842 1 94.8309 91.3806 -5.55112e-17
843 2 159.702 182.965 -5.55112e-17
844 1 29.5393 155.928 -5.55112e-17
845 1 71.7658 189.247 -5.55112e-17
846 1 158.995 190.721 -5.55112e-17
847 1 42.2956 140.697 -5.55112e-17
848 1 188.082 117.84 -5.55112e-17
849 1 189.116 167.44 -5.55112e-17
850 1 38.9418 129.061 -5.55112e-17
851 1 89.516 37.398 -5.55112e-17
852 1 12.0125 209.24 -5.55112e-17
853 1 31.7281 138.742 -5.55112e-17
854 1 171.256 84.9318 -5.55112e-17
855 1 126.213 19.6397 -5.55112e-17
856 1 209.945 170.32 -5.55112e-17