ITEM: TIMESTEP
0
ITEM: NUMBER OF ATOMS
7200
ITEM: BOX BOUNDS xy xz yz pp pp pp
0.0000000000000000e+00 2.1900000000000000e+02 0.0000000000000000e+00
0.0000000000000000e+00 2.1900000000000000e+02 0.0000000000000000e+00
-3.6499999999999999e-01 3.6499999999999999e-01 0.0000000000000000e+00
ITEM: ATOMS id type x y z
1 1 76.4087 191.294 -5.55112e-17
2 1 94.3346 88.6074 -5.55112e-17
3 1 18.5864 19.9038 -5.55112e-17
4 1 33.0114 90.2222 -5.55112e-17
5 1 86.3688 146.236 -5.55112e-17
6 1 148.056 170.634 -5.55112e-17
7 1 198.999 0.121042 -5.55112e-17
8 2 188.819 124.56 -5.55112e-17
9 1 191.632 190.881 -5.55112e-17
10 2 78.344 182.265 -5.55112e-17
11 1 145.587 55.7605 -5.55112e-17
12 1 111.325 91.8507 -5.55112e-17
13 2 210.019 46.773 -5.55112e-17
14 1 100.713 102.857 -5.55112e-17
15 1 196.848 117.338 -5.55112e-17
16 2 93.0903 218.604 -5.55112e-17
17 1 109.493 21.0082 -5.55112e-17
18 2 79.218 41.5105 -5.55112e-17
19 1 113.743 98.0663 -5.55112e-17
20 1 199.475 96.2045 -5.55112e-17
21 1 142.072 207.834 -5.55112e-17
22 2 29.2535 178.785 -5.55112e-17
23 2 55.3018 49.3821 -5.55112e-17
24 1 169.33 135.879 -5.55112e-17
25 1 42.912 178.702 -5.55112e-17
26 2 93.4857 117.357 -5.55112e-17
27 1 199.605 174.067 -5.55112e-17
28 2 73.8406 154.927 -5.55112e-17
29 1 1.90753 72.6783 -5.55112e-17
30 1 165.601 80.3735 -5.55112e-17
31 1 165.011 46.4365 -5.55112e-17
32 1 47.0924 197.861 -5.55112e-17
33 1 214.623 175.32 -5.55112e-17
34 1 43.1597 45.2691 -5.55112e-17
35 1 164.334 1.23013 -5.55112e-17
36 1 194.17 143.954 -5.55112e-17
37 2 128.43 115.528 -5.55112e-17
38 1 128.994 123.338 -5.55112e-17
39 1 125.511 152.484 -5.55112e-17
40 1 180.131 206.864 -5.55112e-17
41 1 82.5541 17.5236 -5.55112e-17
42 1 53.3375 83.0885 -5.55112e-17
43 1 169.599 49.6423 -5.55112e-17
44 1 149.191 105.023 -5.55112e-17
45 1 204.831 39.1227 -5.55112e-17
46 1 111.107 179.248 -5.55112e-17
47 1 42.1963 176.317 -5.55112e-17
48 2 0.124987 38.5868 -5.55112e-17
49 1 22.2991 53.0929 -5.55112e-17
50 1 60.6012 169.042 -5.55112e-17
51 1 113.791 48.05 -5.55112e-17
52 1 172.162 92.0315 -5.55112e-17
53 1 108.352 199.674 -5.55112e-17
54 1 159.507 104.061 -5.55112e-17
55 1 13.5412 191.383 -5.55112e-17
56 1 112.645 149.103 -5.55112e-17
57 2 137.727 178.979 -5.55112e-17
58 1 16.6147 208.528 -5.55112e-17
59 1 166.869 85.1431 -5.55112e-17
60 2 185.78 109.171 -5.55112e-17
61 2 27.2078 156.87 -5.55112e-17
62 1 31.7208 97.2897 -5.55112e-17
63 1 88.9504 26.9628 -5.55112e-17
64 1 157.94 198.776 -5.55112e-17
65 1 183.202 143.742 -5.55112e-17
66 1 105.289 100.84 -5.55112e-17
67 1 204.105 146.107 -5.55112e-17
68 1 64.1559 213.178 -5.55112e-17
69 1 116.144 194.733 -5.55112e-17
70 1 27.4858 61.1907 -5.55112e-17
71 1 151.775 195.424 -5.55112e-17
72 1 150.583 99.8521 -5.55112e-17
73 1 163.119 147.983 -5.55112e-17
74 1 190.257 203.545 -5.55112e-17
75 2 100.71 216.825 -5.55112e-17
76 1 160.731 40.1118 -5.55112e-17
77 1 215.508 187.423 -5.55112e-17
78 1 84.8927 186.244 -5.55112e-17
79 2 129.604 72.5596 -5.55112e-17
80 1 63.5938 173.459 -5.55112e-17
81 1 138.534 131.981 -5.55112e-17
82 1 99.3495 197.671 -5.55112e-17
83 2 113.874 179.697 -5.55112e-17
84 1 23.7452 20.2006 -5.55112e-17
85 1 39.3839 166.204 -5.55112e-17
86 1 93.8982 151.579 -5.55112e-17
87 1 62.3812 53.0536 -5.55112e-17
88 1 211.492 200.753 -5.55112e-17
89 2 40.6502 4.89229 -5.55112e-17
90 2 15.6578 163.419 -5.55112e-17
91 1 159.443 35.031 -5.55112e-17
92 2 164.215 202.603 -5.55112e-17
93 1 155.428 198.222 -5.55112e-17
94 2 143.712 35.936 -5.55112e-17
95 1 11.3419 27.9514 -5.55112e-17
96 1 188.772 138.13 -5.55112e-17
97 1 3.93463 205.891 -5.55112e-17
98 1 128.207 80.2617 -5.55112e-17
99 1 174.701 92.7302 -5.55112e-17
100 1 136.135 188.716 -5.55112e-17
101 1 57.6107 80.5601 -5.55112e-17
102 1 196.93 61.6036 -5.55112e-17
103 1 99.577 20.2732 -5.55112e-17
104 1 212.437 94.4579 -5.55112e-17
105 1 76.6367 100.245 -5.55112e-17
106 1 80.6207 113.054 -5.55112e-17
107 2 135.197 60.755 -5.55112e-17
108 1 77.9739 197.965 -5.55112e-17
109 1 190.136 133.451 -5.55112e-17
110 1 35.8182 99.5181 -5.55112e-17
111 1 42.8507 10.3264 -5.55112e-17
112 1 73.1342 113.519 -5.55112e-17
113 1 140.675 170.055 -5.55112e-17
114 1 168.51 196.633 -5.55112e-17
115 1 46.5758 192.132 -5.55112e-17
116 2 6.04504 150.033 -5.55112e-17
117 1 179.183 185.72 -5.55112e-17
118 1 194.067 198.734 -5.55112e-17
119 2 52.312 91.6131 -5.55112e-17
120 1 18.9977 12.6209 -5.55112e-17
121 1 166.127 55.3024 -5.55112e-17
122 1 111.481 49.14 -5.55112e-17
123 1 148.516 117.282 -5.55112e-17
124 1 201.329 218.474 -5.55112e-17
125 1 145.297 78.4932 -5.55112e-17
126 1 31.0152 45.0343 -5.55112e-17
127 1 160.858 83.2282 -5.55112e-17
128 1 173.983 188.393 -5.55112e-17
129 1 217.068 141.028 -5.55112e-17
130 1 54.2876 128.64 -5.55112e-17
131 1 193.839 157.743 -5.55112e-17
132 2 12.7389 202.042 -5.55112e-17
133 1 131.577 122.493 -5.55112e-17
134 1 49.9801 64.7054 -5.55112e-17
135 1 175.895 189.667 -5.55112e-17
136 1 210.706 126.67 -5.55112e-17
137 1 164.137 208.855 -5.55112e-17
138 1 43.1201 36.0199 -5.55112e-17
139 1 213.492 87.2933 -5.55112e-17
140 2 153.952 185.022 -5.55112e-17
141 1 189.929 54.5569 -5.55112e-17
142 2 174.099 19.55 -5.55112e-17
143 1 51.123 160.567 -5.55112e-17
144 2 56.3837 210.131 -5.55112e-17
145 1 99.9294 39.2153 -5.55112e-17
146 1 137.691 53.6772 -5.55112e-17
147 1 175.972 162.693 -5.55112e-17
148 1 39.6046 204.716 -5.55112e-17
149 1 63.1661 75.0009 -5.55112e-17
150 1 174.159 58.2149 -5.55112e-17
151 1 75.6784 152.543 -5.55112e-17
152 1 34.6057 101.976 -5.55112e-17
153 2 22.335 200.272 -5.55112e-17
154 1 194.989 119.083 -5.55112e-17
155 1 156.877 178.225 -5.55112e-17
156 2 24.7083 185.609 -5.55112e-17
157 1 182.539 73.413 -5.55112e-17
158 1 50.7526 218.479 -5.55112e-17
159 1 15.3394 147.069 -5.55112e-17
160 1 49.5009 198.353 -5.55112e-17
161 1 62.7346 217.189 -5.55112e-17
162 1 55.6208 149.418 -5.55112e-17
163 1 91.0902 64.5271 -5.55112e-17
164 1 164.873 112.073 -5.55112e-17
165 1 180.615 201.905 -5.55112e-17
166 2 167.671 47.6218 -5.55112e-17
167 1 134.997 75.3981 -5.55112e-17
168 1 150.428 174.993 -5.55112e-17
169 1 120.522 121.055 -5.55112e-17
170 1 117.899 189.939 -5.55112e-17
171 1 174.11 127.741 -5.55112e-17
172 1 14.902 43.9653 -5.55112e-17
173 1 32.0813 156.386 -5.55112e-17
174 1 100.276 97.7996 -5.55112e-17
175 2 164.133 172.352 -5.55112e-17
176 1 46.3686 141.177 -5.55112e-17
177 2 20.1479 94.0152 -5.55112e-17
178 1 64.5717 67.3679 -5.55112e-17
179 1 213.278 159.621 -5.55112e-17
180 1 201.666 203.901 -5.55112e-17
181 1 0.0834068 114.182 -5.55112e-17
182 2 201.083 2.61223 -5.55112e-17
183 1 89.2258 156.547 -5.55112e-17
184 1 147.777 32.4902 -5.55112e-17
185 2 91.0849 37.4371 -5.55112e-17
186 2 192.013 106.345 -5.55112e-17
187 1 67.1326 81.8284 -5.55112e-17
188 1 101.246 18.506 -5.55112e-17
189 1 147.984 199.513 -5.55112e-17
190 2 53.6803 191.838 -5.55112e-17
191 1 122.475 21.917 -5.55112e-17
192 2 197.207 71.3982 -5.55112e-17
193 2 112.572 189.953 -5.55112e-17
194 1 203.443 115.084 -5.55112e-17
195 1 217.118 153.545 -5.55112e-17
196 1 218.446 98.956 -5.55112e-17
197 1 218.87 53.7769 -5.55112e-17
198 2 43.3783 111.524 -5.55112e-17
199 1 20.0752 24.4028 -5.55112e-17
200 1 74.7978 8.65679 -5.55112e-17
201 2 56.2911 135.571 -5.55112e-17
202 1 94.5873 11.7144 -5.55112e-17
203 1 98.4103 90.3164 -5.55112e-17
204 1 168.992 140.83 -5.55112e-17
205 2 7.88446 93.3372 -5.55112e-17
206 1 120.218 113.556 -5.55112e-17
207 1 130.032 120.898 -5.55112e-17
208 1 45.3584 52.4041 -5.55112e-17
209 1 158.634 183.406 -5.55112e-17
210 1 9.23465 72.2625 -5.55112e-17
211 2 154.673 194.865 -5.55112e-17
212 1 178.181 44.3403 -5.55112e-17
213 1 152.896 99.2479 -5.55112e-17
214 1 83.105 60.939 -5.55112e-17
215 1 143.765 195.307 -5.55112e-17
216 1 151.896 120.572 -5.55112e-17
217 1 123.184 117.013 -5.55112e-17
218 2 27.3014 112.335 -5.55112e-17
219 1 100.442 180.734 -5.55112e-17
220 2 86.9448 122.591 -5.55112e-17
221 1 201.401 68.9941 -5.55112e-17
222 1 144.11 144.963 -5.55112e-17
223 1 20.1691 159.883 -5.55112e-17
224 2 40.8054 202.2 -5.55112e-17
225 1 215.108 121.238 -5.55112e-17
226 1 6.45786 174.907 -5.55112e-17
227 2 39.2224 14.7881 -5.55112e-17
228 1 122.372 148.989 -5.55112e-17
229 1 18.7365 155.34 -5.55112e-17
230 1 174.909 144.172 -5.55112e-17
231 1 166.022 94.6002 -5.55112e-17
232 1 194.895 16.4406 -5.55112e-17
233 1 43.9616 114.385 -5.55112e-17
234 1 79.5994 31.1042 -5.55112e-17
235 1 194.921 77.1086 -5.55112e-17
236 1 37.8507 118.879 -5.55112e-17
237 1 16.9321 120.058 -5.55112e-17
238 1 122.332 137.178 -5.55112e-17
239 2 34.2167 115.892 -5.55112e-17
240 1 140.362 209.596 -5.55112e-17
241 2 99.236 170.742 -5.55112e-17
242 2 218.147 205.614 -5.55112e-17
243 2 60.8488 22.0923 -5.55112e-17
244 1 90.682 82.5423 -5.55112e-17
245 1 88.8259 115.385 -5.55112e-17
246 1 178.88 133.264 -5.55112e-17
247 1 170.955 117.875 -5.55112e-17
248 1 116.349 34.1075 -5.55112e-17
249 1 213.447 55.9136 -5.55112e-17
250 2 97.3881 48.1588 -5.55112e-17
251 1 93.466 18.8453 -5.55112e-17
252 1 183.458 22.4019 -5.55112e-17
253 1 149.163 68.9991 -5.55112e-17
254 2 84.2059 189.25 -5.55112e-17
255 1 211.46 152.7 -5.55112e-17
256 1 101.981 163.032 -5.55112e-17
257 1 14.8436 135.113 -5.55112e-17
258 2 140.417 23.1183 -5.55112e-17
259 1 7.73173 128.089 -5.55112e-17
260 1 121.813 118.961 -5.55112e-17
261 1 211.556 157.718 -5.55112e-17
262 1 78.481 63.2322 -5.55112e-17
263 1 33.6504 72.5294 -5.55112e-17
264 1 178.663 199.31 -5.55112e-17
265 1 52.7669 9.77579 -5.55112e-17
266 1 170.797 29.5863 -5.55112e-17
267 1 174.169 67.2301 -5.55112e-17
268 1 42.2587 40.5068 -5.55112e-17
269 1 94.4038 114.025 -5.55112e-17
270 1 90.1086 91.3873 -5.55112e-17
271 1 91.5198 55.9337 -5.55112e-17
272 1 198.648 155.987 -5.55112e-17
273 1 72.1284 23.0152 -5.55112e-17
274 2 140.059 129.351 -5.55112e-17
275 1 53.0778 99.7601 -5.55112e-17
276 2 193.318 24.6665 -5.55112e-17
277 2 145.946 48.0257 -5.55112e-17
278 1 56.4343 176.279 -5.55112e-17
279 2 88.9837 32.493 -5.55112e-17
280 1 202.378 10.3879 -5.55112e-17
281 1 107.587 19.3737 -5.55112e-17
282 1 96.6533 177.722 -5.55112e-17
283 1 131.509 155.221 -5.55112e-17
284 1 147.961 87.5732 -5.55112e-17
285 1 211.107 203.156 -5.55112e-17
286 2 77.8286 7.51353 -5.55112e-17
287 1 45.203 92.4666 -5.55112e-17
288 1 8.98012 79.3373 -5.55112e-17
289 1 68.2876 69.8096 -5.55112e-17
290 1 198.629 194.747 -5.55112e-17
291 1 166.885 145.237 -5.55112e-17
292 2 46.3063 4.01273 -5.55112e-17
293 2 98.8453 30.9261 -5.55112e-17
294 1 88.6984 39.3084 -5.55112e-17
295 1 113.006 16.4861 -5.55112e-17
296 1 102.62 30.7693 -5.55112e-17
297 1 175.525 148.9 -5.55112e-17
298 1 171.167 3.42437 -5.55112e-17
299 1 125.408 86.7342 -5.55112e-17
300 2 61.1678 166.165 -5.55112e-17
301 1 22.8857 50.3175 -5.55112e-17
302 1 86.5813 173.23 -5.55112e-17
303 2 42.4142 51.5075 -5.55112e-17
304 2 162.938 159.86 -5.55112e-17
305 1 95.8427 129.591 -5.55112e-17
306 1 60.0411 62.2646 -5.55112e-17
307 1 14.1771 171.469 -5.55112e-17
308 1 57.9925 61.149 -5.55112e-17
309 2 113.834 154.789 -5.55112e-17
310 1 209.696 34.9403 -5.55112e-17
311 1 39.7453 52.5631 -5.55112e-17
312 1 184.772 141.687 -5.55112e-17
313 2 116.217 23.3929 -5.55112e-17
314 1 94.6832 70.0892 -5.55112e-17
315 1 118.629 160.249 -5.55112e-17
316 1 213.033 58.2237 -5.55112e-17
317 1 41.4418 114.123 -5.55112e-17
318 1 128.14 187.897 -5.55112e-17
319 1 89.048 1.41598 -5.55112e-17
320 1 137.622 127.669 -5.55112e-17
321 1 28.3992 56.0645 -5.55112e-17
322 1 123.475 139.26 -5.55112e-17
323 1 195.56 176.742 -5.55112e-17
324 1 109.072 76.6378 -5.55112e-17
325 1 151.08 158.559 -5.55112e-17
326 1 83.6521 181.914 -5.55112e-17
327 2 115.231 185.243 -5.55112e-17
328 1 183.828 38.7928 -5.55112e-17
329 2 202.925 87.8221 -5.55112e-17
330 1 9.73623 130.518 -5.55112e-17
331 1 198.073 9.96487 -5.55112e-17
332 2 140.198 91.0562 -5.55112e-17
333 1 31.1723 5.96192 -5.55112e-17
334 1 124.563 214.435 -5.55112e-17
335 1 6.50667 191.41 -5.55112e-17
336 1 202.8 102.179 -5.55112e-17
337 1 182.179 6.47756 -5.55112e-17
338 1 160.446 199.208 -5.55112e-17
339 1 177.197 98.8476 -5.55112e-17
340 1 179.856 113.933 -5.55112e-17
341 1 123.237 7.31347 -5.55112e-17
342 1 162.449 181.907 -5.55112e-17
343 1 136.142 118.586 -5.55112e-17
344 1 120.393 196.744 -5.55112e-17
345 1 17.6872 201.219 -5.55112e-17
346 1 18.8184 138.081 -5.55112e-17
347 1 52.3609 102.233 -5.55112e-17
348 1 132.976 182.436 -5.55112e-17
349 1 69.3982 125.26 -5.55112e-17
350 2 94.8643 75.4885 -5.55112e-17
351 1 163.182 12.4768 -5.55112e-17
352 1 207.079 150.662 -5.55112e-17
353 1 22.6736 203.486 -5.55112e-17
354 1 176.881 155.654 -5.55112e-17
355 1 85.8038 141.884 -5.55112e-17
356 1 157.458 0.565883 -5.55112e-17
357 1 36.569 186.262 -5.55112e-17
358 1 214.884 185.035 -5.55112e-17
359 1 184.939 181.689 -5.55112e-17
360 1 31.6078 108.753 -5.55112e-17
361 1 123.612 188.48 -5.55112e-17
362 1 198.973 208.354 -5.55112e-17
363 1 182.625 182.854 -5.55112e-17
364 2 206.552 99.1812 -5.55112e-17
365 1 190.53 110.861 -5.55112e-17
366 1 123.446 161.564 -5.55112e-17
367 1 73.3063 120.905 -5.55112e-17
368 1 197.469 12.4277 -5.55112e-17
369 2 74.9227 197.028 -5.55112e-17
370 1 37.2378 0.809416 -5.55112e-17
371 1 29.7227 132.493 -5.55112e-17
372 2 0.662664 23.0384 -5.55112e-17
373 2 126.627 13.3028 -5.55112e-17
374 1 152.485 53.8158 -5.55112e-17
375 1 179.115 129.423 -5.55112e-17
376 1 36.0071 153.309 -5.55112e-17
377 1 206.007 75.9612 -5.55112e-17
378 1 63.8446 194.466 -5.55112e-17
379 1 8.49151 74.8547 -5.55112e-17
380 1 195.443 146.598 -5.55112e-17
381 1 9.96232 166.417 -5.55112e-17
382 1 61.1692 137.019 -5.55112e-17
383 1 86.2865 79.6433 -5.55112e-17
384 1 39.3443 25.3923 -5.55112e-17
385 1 192.635 109.069 -5.55112e-17
386 2 58.4672 11.8051 -5.55112e-17
387 1 185.944 212.085 -5.55112e-17
388 1 91.0033 109.787 -5.55112e-17
389 1 109.416 181.023 -5.55112e-17
390 2 0.486037 160.105 -5.55112e-17
391 2 210.1 198.026 -5.55112e-17
392 1 100.361 205.646 -5.55112e-17
393 1 206.889 66.7128 -5.55112e-17
394 1 81.5115 122.485 -5.55112e-17
395 1 32.8281 33.751 -5.55112e-17
396 1 203.275 158.57 -5.55112e-17
397 1 146.619 76.3668 -5.55112e-17
398 1 205.246 168.031 -5.55112e-17
399 1 179.916 36.1945 -5.55112e-17
400 1 98.8804 55.5673 -5.55112e-17
401 1 107.094 203.874 -5.55112e-17
402 2 23.2634 143.867 -5.55112e-17
403 1 180.636 30.4651 -5.55112e-17
404 1 22.6924 91.9905 -5.55112e-17
405 1 10.3538 163.966 -5.55112e-17
406 1 180.961 45.3619 -5.55112e-17
407 2 17.4156 51.551 -5.55112e-17
408 1 22.7485 24.7641 -5.55112e-17
409 1 4.66566 113.45 -5.55112e-17
410 1 37.3213 214.895 -5.55112e-17
411 1 182.18 155.602 -5.55112e-17
412 1 114.039 25.5584 -5.55112e-17
413 1 73.2704 103.928 -5.55112e-17
414 1 5.45329 211.67 -5.55112e-17
415 1 172.983 153.421 -5.55112e-17
416 1 66.0533 20.2075 -5.55112e-17
417 1 136.034 88.4104 -5.55112e-17
418 2 181.282 188.128 -5.55112e-17
419 1 121.047 134.789 -5.55112e-17
420 2 168.871 127.362 -5.55112e-17
421 1 218.541 134.101 -5.55112e-17
422 1 145.216 33.1244 -5.55112e-17
423 2 177.024 179.036 -5.55112e-17
424 1 114.941 196.975 -5.55112e-17
425 1 150.503 170.396 -5.55112e-17
426 1 153.237 153.814 -5.55112e-17
427 1 127.132 108.034 -5.55112e-17
428 1 64.2052 166.106 -5.55112e-17
429 1 185.694 138.696 -5.55112e-17
430 1 164.164 3.79454 -5.55112e-17
431 1 173.181 167.387 -5.55112e-17
432 1 127.933 19.3869 -5.55112e-17
433 1 118.392 153.186 -5.55112e-17
434 1 24.7248 15.3224 -5.55112e-17
435 1 142.496 130.984 -5.55112e-17
436 1 91.9364 21.2612 -5.55112e-17
437 1 206.262 126.975 -5.55112e-17
438 2 121.503 65.6259 -5.55112e-17
439 1 90.321 15.6329 -5.55112e-17
440 1 161.171 80.5648 -5.55112e-17
441 1 27.1964 151.459 -5.55112e-17
442 1 140.489 20.1729 -5.55112e-17
443 1 13.7972 73.521 -5.55112e-17
444 1 179.658 90.3362 -5.55112e-17
445 1 134.159 79.6375 -5.55112e-17
446 1 173.681 133.702 -5.55112e-17
447 1 20.0102 211.501 -5.55112e-17
448 1 89.1007 35.1456 -5.55112e-17
449 1 148.105 136.733 -5.55112e-17
450 1 133.479 210.997 -5.55112e-17
451 1 161.975 23.8831 -5.55112e-17
452 1 142.753 155.168 -5.55112e-17
453 1 210.986 167.071 -5.55112e-17
454 1 185.487 21.1712 -5.55112e-17
455 1 146.131 72.1676 -5.55112e-17
456 1 201.181 195.011 -5.55112e-17
457 1 19.5224 43.8439 -5.55112e-17
458 1 176.011 181.729 -5.55112e-17
459 1 27.337 44.3201 -5.55112e-17
460 1 189.266 89.4418 -5.55112e-17
461 1 191.72 178.75 -5.55112e-17
462 1 60.3892 150.245 -5.55112e-17
463 1 131.202 53.2546 -5.55112e-17
464 1 131.327 4.7579 -5.55112e-17
465 1 176.123 126.137 -5.55112e-17
466 1 67.5663 127.489 -5.55112e-17
467 1 45.4113 64.7553 -5.55112e-17
468 1 202.44 161.852 -5.55112e-17
469 1 47.4395 63.1517 -5.55112e-17
470 1 70.8153 27.8895 -5.55112e-17
471 1 135.212 208.853 -5.55112e-17
472 1 21.7953 55.8312 -5.55112e-17
473 1 104.432 117.508 -5.55112e-17
474 1 104.115 165.365 -5.55112e-17
475 1 96.4853 196.712 -5.55112e-17
476 2 199.01 211.17 -5.55112e-17
477 1 175.646 65.2288 -5.55112e-17
478 1 7.77027 157.053 -5.55112e-17
479 1 193.933 217.353 -5.55112e-17
480 1 48.4643 25.5548 -5.55112e-17
481 1 38.355 122.216 -5.55112e-17
482 1 139.17 136.874 -5.55112e-17
483 1 116.06 159.693 -5.55112e-17
484 2 81.1603 52.0617 -5.55112e-17
485 1 67.734 201.415 -5.55112e-17
486 1 68.2216 34.5701 -5.55112e-17
487 1 77.2943 195.566 -5.55112e-17
488 1 65.1696 107.995 -5.55112e-17
489 1 161.084 108.745 -5.55112e-17
490 1 7.11181 209.649 -5.55112e-17
491 1 164.469 102.431 -5.55112e-17
492 1 13.0492 111.821 -5.55112e-17
493 1 173.388 174.914 -5.55112e-17
494 1 172.082 160.059 -5.55112e-17
495 1 106.996 40.514 -5.55112e-17
496 2 120.521 204.664 -5.55112e-17
497 1 13.8151 18.0346 -5.55112e-17
498 1 109.087 136.784 -5.55112e-17
499 2 121.149 183.55 -5.55112e-17
500 1 125.818 0.635283 -5.55112e-17
501 2 142.187 12.6351 -5.55112e-17
502 2 141.133 164.686 -5.55112e-17
503 1 152.139 156.24 -5.55112e-17
504 1 125.196 159.427 -5.55112e-17
505 1 171.009 20.354 -5.55112e-17
506 1 6.07224 158.898 -5.55112e-17
507 1 83.9361 136.588 -5.55112e-17
508 1 147.644 45.021 -5.55112e-17
509 2 57.7677 69.7502 -5.55112e-17
510 2 159.942 98.7401 -5.55112e-17
511 1 100.324 75.6672 -5.55112e-17
512 2 31.2483 70.57 -5.55112e-17
513 1 67.207 216.277 -5.55112e-17
514 1 69.5341 90.7993 -5.55112e-17
515 1 8.96465 191.91 -5.55112e-17
516 1 79.7813 187.307 -5.55112e-17
517 1 117.982 121.329 -5.55112e-17
518 2 93.3493 83.6543 -5.55112e-17
519 1 8.94739 23.3373 -5.55112e-17
520 2 16.9742 23.8262 -5.55112e-17
521 1 186.78 106.315 -5.55112e-17
522 1 24.1486 11.2756 -5.55112e-17
523 1 17.076 140.064 -5.55112e-17
524 1 45.1776 70.555 -5.55112e-17
525 1 88.4264 197.397 -5.55112e-17
526 1 118.578 38.7705 -5.55112e-17
527 1 79.5425 23.8708 -5.55112e-17
528 1 150.133 22.2842 -5.55112e-17
529 1 62.351 148.138 -5.55112e-17
530 1 141.184 88.5009 -5.55112e-17
531 1 73.1215 151.923 -5.55112e-17
532 1 92.4645 200.443 -5.55112e-17
533 1 90.1921 153.927 -5.55112e-17
534 1 101.675 143.94 -5.55112e-17
535 1 214.72 132.993 -5.55112e-17
536 1 166.573 119.491 -5.55112e-17
537 1 178.547 181.252 -5.55112e-17
538 1 131.343 29.3868 -5.55112e-17
539 1 62.8704 10.4174 -5.55112e-17
540 1 135.816 105.948 -5.55112e-17
541 1 105.282 0.100756 -5.55112e-17
542 1 87.427 50.27 -5.55112e-17
543 1 96.1776 186.182 -5.55112e-17
544 1 162.117 207.662 -5.55112e-17
545 1 40.778 151.785 -5.55112e-17
546 1 173.942 7.18837 -5.55112e-17
547 1 10.747 93.4374 -5.55112e-17
548 1 65.8709 168.097 -5.55112e-17
549 1 24.3901 38.997 -5.55112e-17
550 2 6.2514 139.602 -5.55112e-17
551 2 114.976 102.961 -5.55112e-17
552 2 144.608 4.55152 -5.55112e-17
553 1 143.415 7.06678 -5.55112e-17
554 1 0.44613 63.2116 -5.55112e-17
555 2 203.815 57.7305 -5.55112e-17
556 1 165.311 11.256 -5.55112e-17
557 1 63.0093 47.2642 -5.55112e-17
558 1 159.938 151.333 -5.55112e-17
559 1 171.638 24.6582 -5.55112e-17
560 1 104.392 38.8043 -5.55112e-17
561 1 175.652 153.408 -5.55112e-17
562 1 170.155 149.268 -5.55112e-17
563 2 179.796 170.615 -5.55112e-17
564 1 11.819 51.1702 -5.55112e-17
565 1 90.3383 218.25 -5.55112e-17
566 1 54.8383 70.5936 -5.55112e-17
567 1 175.644 77.3144 -5.55112e-17
568 1 61.0926 198.024 -5.55112e-17
569 1 46.4252 138.646 -5.55112e-17
570 1 116.875 132.209 -5.55112e-17
571 1 202.918 186.421 -5.55112e-17
572 1 134.794 90.7681 -5.55112e-17
573 1 164.74 48.8626 -5.55112e-17
574 1 215.045 148.173 -5.55112e-17
575 1 196.698 55.9936 -5.55112e-17
576 1 199.171 105.152 -5.55112e-17
577 1 154.575 192.077 -5.55112e-17
578 1 156.835 184.997 -5.55112e-17
579 1 7.65777 4.40752 -5.55112e-17
580 1 148.617 42.5084 -5.55112e-17
581 1 191.547 148.46 -5.55112e-17
582 1 0.427252 27.1929 -5.55112e-17
583 1 185.685 214.343 -5.55112e-17
584 2 26.9888 162.437 -5.55112e-17
585 1 82.8189 111.717 -5.55112e-17
586 1 117.511 164.577 -5.55112e-17
587 1 1.18233 57.9036 -5.55112e-17
588 1 51.2583 157.216 -5.55112e-17
589 1 123.139 190.628 -5.55112e-17
590 1 89.8699 29.8839 -5.55112e-17
591 1 60.421 188.339 -5.55112e-17
592 1 3.39293 90.9558 -5.55112e-17
593 1 203.107 17.3514 -5.55112e-17
594 1 11.3296 192.976 -5.55112e-17
595 1 80.6844 89.8062 -5.55112e-17
596 1 190.759 37.2459 -5.55112e-17
597 2 170.953 6.29946 -5.55112e-17
598 1 181.477 216.047 -5.55112e-17
599 1 13.961 27.9798 -5.55112e-17
600 1 135.522 18.2415 -5.55112e-17
601 1 51.7549 176.184 -5.55112e-17
602 1 108.121 25.3668 -5.55112e-17
603 1 2.90116 211.721 -5.55112e-17
604 1 136.327 203.968 -5.55112e-17
605 2 91.5095 141.502 -5.55112e-17
606 1 167.92 161.342 -5.55112e-17
607 2 166.751 164.262 -5.55112e-17
608 1 123.478 120.856 -5.55112e-17
609 1 60.9151 176.325 -5.55112e-17
610 1 185.974 143.789 -5.55112e-17
611 1 43.2568 171.715 -5.55112e-17
612 1 43.7782 80.1538 -5.55112e-17
613 1 213.312 166.609 -5.55112e-17
614 2 201.247 171.429 -5.55112e-17
615 1 82.2121 201.304 -5.55112e-17
616 1 162.39 112.856 -5.55112e-17
617 1 67.2154 188.458 -5.55112e-17
618 1 191.582 174.006 -5.55112e-17
619 1 144.419 123.344 -5.55112e-17
620 1 124.479 91.0005 -5.55112e-17
621 1 137.959 111.06 -5.55112e-17
622 1 127.785 190.797 -5.55112e-17
623 1 197.761 206.173 -5.55112e-17
624 1 213.015 45.9106 -5.55112e-17
625 1 162.941 97.9543 -5.55112e-17
626 1 84.1175 3.15464 -5.55112e-17
627 1 89.3947 101.892 -5.55112e-17
628 1 71.6262 11.111 -5.55112e-17
629 1 69.7505 136.702 -5.55112e-17
630 2 138.244 50.9765 -5.55112e-17
631 1 33.1061 106.917 -5.55112e-17
632 1 70.6729 120.277 -5.55112e-17
633 1 42.8549 199.604 -5.55112e-17
634 1 154.241 69.9588 -5.55112e-17
635 1 145.216 120.755 -5.55112e-17
636 1 180.368 75.0336 -5.55112e-17
637 1 217.351 33.8088 -5.55112e-17
638 1 206.568 41.0258 -5.55112e-17
639 2 49.9329 70.5536 -5.55112e-17
640 1 166.22 169.42 -5.55112e-17
641 1 196.974 97.3626 -5.55112e-17
642 1 165.661 58.1301 -5.55112e-17
643 2 149.644 13.0843 -5.55112e-17
644 1 110.562 198.305 -5.55112e-17
645 1 117.352 192.378 -5.55112e-17
646 2 12.463 159.156 -5.55112e-17
647 1 100.689 3.32211 -5.55112e-17
648 1 177.845 121.637 -5.55112e-17
649 2 7.50348 111.693 -5.55112e-17
650 1 53.7432 200.436 -5.55112e-17
651 1 0.934262 101.109 -5.55112e-17
652 1 163.171 199.399 -5.55112e-17
653 1 188.593 218.837 -5.55112e-17
654 1 218.904 6.61649 -5.55112e-17
655 2 183.437 94.674 -5.55112e-17
656 1 51.9349 178.854 -5.55112e-17
657 2 77.8252 33.8188 -5.55112e-17
658 1 201.473 42.8217 -5.55112e-17
659 2 216.727 170.005 -5.55112e-17
660 1 90.5394 10.7751 -5.55112e-17
661 1 48.044 150.238 -5.55112e-17
662 1 59.4984 92.8614 -5.55112e-17
663 1 89.0719 215.812 -5.55112e-17
664 1 133.823 47.7781 -5.55112e-17
665 1 167.844 57.2516 -5.55112e-17
666 2 84.413 193.023 -5.55112e-17
667 1 152.864 51.238 -5.55112e-17
668 2 98.0491 101.899 -5.55112e-17
669 1 138.144 62.2381 -5.55112e-17
670 1 166.97 216.355 -5.55112e-17
671 2 32.4424 173.72 -5.55112e-17
672 1 142.788 32.7273 -5.55112e-17
673 1 214.672 47.7868 -5.55112e-17
674 1 4.835 147.242 -5.55112e-17
675 1 113.978 53.1563 -5.55112e-17
676 1 151.674 130.743 -5.55112e-17
677 1 116.933 179.812 -5.55112e-17
678 1 102.865 23.3168 -5.55112e-17
679 2 176.054 186.635 -5.55112e-17
680 1 36.8527 217.201 -5.55112e-17
681 2 154.115 7.04119 -5.55112e-17
682 1 190.831 40.875 -5.55112e-17
683 1 38.9204 22.6605 -5.55112e-17
684 1 103.04 167.695 -5.55112e-17
685 1 172.476 69.5629 -5.55112e-17
686 1 86.3586 115.307 -5.55112e-17
687 1 152.176 149.062 -5.55112e-17
688 1 173.571 117.815 -5.55112e-17
689 2 68.2777 26.7595 -5.55112e-17
690 1 87.4349 22.2522 -5.55112e-17
691 1 45.1998 217.911 -5.55112e-17
692 1 116.591 162.125 -5.55112e-17
693 1 108.975 6.19371 -5.55112e-17
694 1 68.5102 194.199 -5.55112e-17
695 1 1.11403 106.993 -5.55112e-17
696 1 127.5 118.394 -5.55112e-17
697 1 137.782 159.437 -5.55112e-17
698 1 157.876 63.8789 -5.55112e-17
699 1 196.519 157.28 -5.55112e-17
700 1 45.6667 36.1664 -5.55112e-17
701 1 9.22363 40.8224 -5.55112e-17
702 1 62.5042 80.8309 -5.55112e-17
703 2 29.9304 147.282 -5.55112e-17
704 1 58.2811 183.664 -5.55112e-17
705 2 175.654 110.027 -5.55112e-17
706 1 103.717 153.917 -5.55112e-17
707 1 111.642 82.6111 -5.55112e-17
708 1 62.8229 150.477 -5.55112e-17
709 1 169.121 208.403 -5.55112e-17
710 1 214.648 139.985 -5.55112e-17
711 1 160.035 155.66 -5.55112e-17
712 1 198.867 132.153 -5.55112e-17
713 1 142.185 146.075 -5.55112e-17
714 1 129.865 77.8624 -5.55112e-17
715 1 36.3113 204.933 -5.55112e-17
716 1 78.814 135.574 -5.55112e-17
717 1 178.667 106.082 -5.55112e-17
718 1 176.092 174.21 -5.55112e-17
719 2 77.8351 106.092 -5.55112e-17
720 1 115.232 79.7952 -5.55112e-17
721 1 181.199 77.6408 -5.55112e-17
722 1 97.9424 93.4211 -5.55112e-17
723 2 0.175617 50.8802 -5.55112e-17
724 1 212.445 9.03896 -5.55112e-17
725 1 214.141 53.3128 -5.55112e-17
726 1 92.6654 111.806 -5.55112e-17
727 1 191.866 183.473 -5.55112e-17
728 2 215.438 93.9212 -5.55112e-17
729 1 106.088 176.997 -5.55112e-17
730 1 90.0927 200.911 -5.55112e-17
731 1 101.826 198.806 -5.55112e-17
732 1 46.7706 21.0706 -5.55112e-17
733 1 56.1426 27.8006 -5.55112e-17
734 1 144.787 39.8509 -5.55112e-17
735 1 7.73643 47.8088 -5.55112e-17
736 2 21.7587 76.3377 -5.55112e-17
737 1 218.803 94.0501 -5.55112e-17
738 1 7.63289 196.558 -5.55112e-17
739 1 135.44 198.779 -5.55112e-17
740 1 66.7069 131.976 -5.55112e-17
741 2 180.888 33.3976 -5.55112e-17
742 1 19.0963 49.0635 -5.55112e-17
743 1 73.2777 88.9807 -5.55112e-17
744 2 201.24 156.475 -5.55112e-17
745 1 127.023 195.897 -5.55112e-17
746 1 16.7773 17.8649 -5.55112e-17
747 2 207.676 212.452 -5.55112e-17
748 1 86.615 209.989 -5.55112e-17
749 1 213.029 198.682 -5.55112e-17
750 1 9.06829 121.245 -5.55112e-17
751 1 42.8256 56.8188 -5.55112e-17
752 1 130.368 183.305 -5.55112e-17
753 1 155.098 172.9 -5.55112e-17
754 1 207.653 196.617 -5.55112e-17
755 1 145.869 213.108 -5.55112e-17
756 2 147.895 187.875 -5.55112e-17
757 1 0.595702 184.39 -5.55112e-17
758 1 3.69133 159.449 -5.55112e-17
759 1 80.3902 148.573 -5.55112e-17
760 1 121.186 77.5049 -5.55112e-17
761 1 123.194 196.064 -5.55112e-17
762 1 3.25448 74.8364 -5.55112e-17
763 1 63.6156 120.785 -5.55112e-17
764 2 144.377 166.556 -5.55112e-17
765 1 41.4655 76.3671 -5.55112e-17
766 1 128.159 33.4337 -5.55112e-17
767 1 64.8609 51.4519 -5.55112e-17
768 1 159.837 0.828313 -5.55112e-17
769 1 67.7467 31.8113 -5.55112e-17
770 2 49.3638 102.94 -5.55112e-17
771 1 180.03 183.16 -5.55112e-17
772 1 80.8579 64.6225 -5.55112e-17
773 1 103.928 185.007 -5.55112e-17
774 1 162.648 136.678 -5.55112e-17
775 1 96.971 42.9662 -5.55112e-17
776 1 47.6834 37.6295 -5.55112e-17
777 1 198.759 180.2 -5.55112e-17
778 1 1.97829 192.255 -5.55112e-17
779 1 191.526 198.066 -5.55112e-17
780 1 193.561 139.256 -5.55112e-17
781 1 36.5739 79.9413 -5.55112e-17
782 1 177.296 36.4291 -5.55112e-17
783 1 128.195 36.2659 -5.55112e-17
784 2 211.55 72.0772 -5.55112e-17
785 1 111.023 7.81475 -5.55112e-17
786 1 135.255 180.792 -5.55112e-17
787 1 165.901 200.296 -5.55112e-17
788 1 145.006 30.6857 -5.55112e-17
789 2 184.699 103.882 -5.55112e-17
790 1 38.4754 50.402 -5.55112e-17
791 2 28.6253 141.291 -5.55112e-17
792 2 211.977 12.038 -5.55112e-17
793 2 122.747 54.3638 -5.55112e-17
794 1 75.1507 34.4353 -5.55112e-17
795 1 163.961 53.8827 -5.55112e-17
796 1 73.0271 4.15194 -5.55112e-17
797 1 183.619 126.569 -5.55112e-17
798 2 193.308 21.5657 -5.55112e-17
799 2 11.8227 71.4081 -5.55112e-17
800 2 111.099 26.1996 -5.55112e-17
801 1 46.4898 105.165 -5.55112e-17
802 1 64.7162 95.5424 -5.55112e-17
803 1 176.177 59.8963 -5.55112e-17
804 2 114.913 55.9536 -5.55112e-17
805 1 31.0226 76.1883 -5.55112e-17
806 1 66.6537 165.807 -5.55112e-17
807 2 123.544 98.8186 -5.55112e-17
808 1 55.4246 79.1048 -5.55112e-17
809 2 174.398 89.8932 -5.55112e-17
810 1 120.325 36.2378 -5.55112e-17
811 1 215.247 199.585 -5.55112e-17
812 1 128.527 24.1338 -5.55112e-17
813 2 143.89 133.518 -5.55112e-17
814 1 107.917 155.208 -5.55112e-17
815 1 102.281 169.964 -5.55112e-17
816 1 32.8328 7.83368 -5.55112e-17
817 1 162.107 2.27503 -5.55112e-17
818 1 55.7405 165.65 -5.55112e-17
819 1 68.8681 177.971 -5.55112e-17
820 1 28.6613 125.375 -5.55112e-17
821 1 104.096 131.782 -5.55112e-17
822 2 11.171 152.169 -5.55112e-17
823 2 95.611 91.5563 -5.55112e-17
824 1 80.7201 61.8238 -5.55112e-17
825 1 16.3743 214.467 -5.55112e-17
826 1 30.2725 1.23682 -5.55112e-17
827 1 194.34 162.128 -5.55112e-17
828 1 176.704 128.604 -5.55112e-17
829 1 206.288 217.254 -5.55112e-17
830 1 54.7439 101.642 -5.55112e-17
831 1 178.422 17.3697 -5.55112e-17
832 1 5.00541 36.9182 -5.55112e-17
833 1 34.4786 48.0013 -5.55112e-17
834 1 98.2369 2.2504 -5.55112e-17
835 1 204.11 4.80879 -5.55112e-17
836 1 210.302 59.312 -5.55112e-17
837 1 59.3828 40.7356 -5.55112e-17
838 1 172.297 195.737 -5.55112e-17
839 2 198.31 159.179 -5.55112e-17
840 1 103.892 36.2361 -5.55112e-17
841 2 98.8585 183.28 -5.55112e-17
842 1 67.2996 24.0638 -5.55112e-17
843 2 167.179 137.9 -5.55112e-17
844 1 21.6778 11.7107 -5.55112e-17
845 1 83.2993 184.333 -5.55112e-17
846 1 137.973 173.527 -5.55112e-17
847 1 84.2709 195.906 -5.55112e-17
848 1 96.9405 53.8116 -5.55112e-17
849 1 200.508 137.699 -5.55112e-17
850 1 33.6204 135.69 -5.55112e-17
851 1 103.173 215.318 -5.55112e-17
852 1 86.9827 175.531 -5.55112e-17
853 1 84.0329 129.608 -5.55112e-17
854 1 102.756 69.1284 -5.55112e-17
855 1 132.854 92.5215 -5.55112e-17