ITEM: TIMESTEP
0
ITEM: NUMBER OF ATOMS
7200
ITEM: BOX BOUNDS xy xz yz pp pp pp
0.0000000000000000e+00 2.1900000000000000e+02 0.0000000000000000e+00
0.0000000000000000e+00 2.1900000000000000e+02 0.0000000000000000e+00
-3.6499999999999999e-01 3.6499999999999999e-01 0.0000000000000000e+00
ITEM: ATOMS id type x y z
1 1 67.7948 201.878 -5.55112e-17
2 1 88.5001 134.507 -5.55112e-17
3 1 9.5274 28.7991 -5.55112e-17
4 1 32.4996 83.4132 -5.55112e-17
5 1 66.5095 139.95 -5.55112e-17
6 1 137.218 168.288 -5.55112e-17
7 1 4.98033 201.227 -5.55112e-17
8 2 188.803 141.315 -5.55112e-17
9 1 193.756 158.797 -5.55112e-17
10 2 71.866 172.519 -5.55112e-17
11 1 149.428 25.7456 -5.55112e-17
12 1 95.6884 118.224 -5.55112e-17
13 2 195.513 45.2935 -5.55112e-17
14 1 87.6914 97.7988 -5.55112e-17
15 1 0.688468 157.246 -5.55112e-17
16 2 80.5915 211.817 -5.55112e-17
17 1 96.5847 38.6807 -5.55112e-17
18 2 75.8543 45.1789 -5.55112e-17
19 1 99.9445 99.3924 -5.55112e-17
20 1 197.854 75.2035 -5.55112e-17
21 1 104.185 16.1254 -5.55112e-17
22 2 24.5481 173.976 -5.55112e-17
23 2 58.6392 55.134 -5.55112e-17
24 1 176.978 111.668 -5.55112e-17
25 1 14.3759 174.32 -5.55112e-17
26 2 63.098 125.38 -5.55112e-17
27 1 200.156 178.445 -5.55112e-17
28 2 89.7824 132.161 -5.55112e-17
29 1 191.72 49.4484 -5.55112e-17
30 1 177.506 81.8515 -5.55112e-17
31 1 170.131 24.6234 -5.55112e-17
32 1 41.7929 216.208 -5.55112e-17
33 1 24.0138 167.834 -5.55112e-17
34 1 58.936 79.8979 -5.55112e-17
35 1 159.324 201.758 -5.55112e-17
36 1 5.59733 148.862 -5.55112e-17
37 2 148.396 108.6 -5.55112e-17
38 1 161.183 126.618 -5.55112e-17
39 1 141.452 148.163 -5.55112e-17
40 1 174.327 4.17781 -5.55112e-17
41 1 141.919 61.8754 -5.55112e-17
42 1 49.521 97.8752 -5.55112e-17
43 1 182.825 59.4421 -5.55112e-17
44 1 154.931 83.092 -5.55112e-17
45 1 215.135 45.6086 -5.55112e-17
46 1 121.412 191.018 -5.55112e-17
47 1 64.4512 194.93 -5.55112e-17
48 2 192.153 7.70506 -5.55112e-17
49 1 60.7459 48.124 -5.55112e-17
50 1 91.4525 172.783 -5.55112e-17
51 1 125.117 58.4692 -5.55112e-17
52 1 174.517 95.243 -5.55112e-17
53 1 123.864 2.13921 -5.55112e-17
54 1 153.702 139.4 -5.55112e-17
55 1 218.156 175.138 -5.55112e-17
56 1 109.849 129.716 -5.55112e-17
57 2 103.104 4.23384 -5.55112e-17
58 1 37.4809 215.378 -5.55112e-17
59 1 126.543 69.7476 -5.55112e-17
60 2 165.093 98.1691 -5.55112e-17
61 2 22.3578 155.117 -5.55112e-17
62 1 21.5635 107.569 -5.55112e-17
63 1 104.782 58.2647 -5.55112e-17
64 1 165.971 197.499 -5.55112e-17
65 1 185.968 146.401 -5.55112e-17
66 1 104.091 93.8528 -5.55112e-17
67 1 203.954 137.501 -5.55112e-17
68 1 46.5317 0.503727 -5.55112e-17
69 1 56.1946 200.452 -5.55112e-17
70 1 41.4791 68.0482 -5.55112e-17
71 1 142.187 204.587 -5.55112e-17
72 1 142.796 124.553 -5.55112e-17
73 1 142.862 153.246 -5.55112e-17
74 1 207.703 202.945 -5.55112e-17
75 2 98.9992 24.0371 -5.55112e-17
76 1 99.6307 26.9061 -5.55112e-17
77 1 203.258 182.582 -5.55112e-17
78 1 88.2224 160.335 -5.55112e-17
79 2 153.509 34.5007 -5.55112e-17
80 1 40.8515 183.333 -5.55112e-17
81 1 139.093 140.097 -5.55112e-17
82 1 63.0836 201.058 -5.55112e-17
83 2 83.3941 203.15 -5.55112e-17
84 1 8.97875 16.1255 -5.55112e-17
85 1 40.0365 148.81 -5.55112e-17
86 1 105.487 149.465 -5.55112e-17
87 1 72.6213 70.8268 -5.55112e-17
88 1 1.4041 188.997 -5.55112e-17
89 2 44.5643 43.5563 -5.55112e-17
90 2 24.6504 136.271 -5.55112e-17
91 1 153.659 31.0912 -5.55112e-17
92 2 172.291 214.285 -5.55112e-17
93 1 173.114 196.048 -5.55112e-17
94 2 102.976 27.7772 -5.55112e-17
95 1 200.04 25.316 -5.55112e-17
96 1 195.186 135.697 -5.55112e-17
97 1 23.5346 190.344 -5.55112e-17
98 1 130.628 76.9467 -5.55112e-17
99 1 179.934 80.5888 -5.55112e-17
100 1 106.399 201.545 -5.55112e-17
101 1 37.382 42.1007 -5.55112e-17
102 1 7.3362 83.9967 -5.55112e-17
103 1 125.664 19.0261 -5.55112e-17
104 1 14.562 109.721 -5.55112e-17
105 1 73.3636 106.206 -5.55112e-17
106 1 54.0603 90.1278 -5.55112e-17
107 2 168.661 27.0514 -5.55112e-17
108 1 111.398 215.293 -5.55112e-17
109 1 181.999 119.523 -5.55112e-17
110 1 14.4726 84.1363 -5.55112e-17
111 1 43.7629 7.36246 -5.55112e-17
112 1 66.7381 121.707 -5.55112e-17
113 1 118.066 208.383 -5.55112e-17
114 1 190.429 201.442 -5.55112e-17
115 1 45.7722 190.17 -5.55112e-17
116 2 200.798 147.553 -5.55112e-17
117 1 180.743 192.147 -5.55112e-17
118 1 9.31517 216.255 -5.55112e-17
119 2 115.284 98.6886 -5.55112e-17
120 1 10.0763 46.0818 -5.55112e-17
121 1 155.546 71.6453 -5.55112e-17
122 1 92.3906 94.7344 -5.55112e-17
123 1 159.817 121.563 -5.55112e-17
124 1 198.174 26.7822 -5.55112e-17
125 1 135.182 89.7253 -5.55112e-17
126 1 67.6929 71.9231 -5.55112e-17
127 1 207.011 87.2172 -5.55112e-17
128 1 172.007 173.289 -5.55112e-17
129 1 217.304 156.144 -5.55112e-17
130 1 62.7441 115.356 -5.55112e-17
131 1 210.039 117.495 -5.55112e-17
132 2 17.6164 190.958 -5.55112e-17
133 1 119.128 143.819 -5.55112e-17
134 1 61.0817 62.0701 -5.55112e-17
135 1 192.19 169.853 -5.55112e-17
136 1 23.3601 127.687 -5.55112e-17
137 1 154.6 207.514 -5.55112e-17
138 1 78.1396 56.0429 -5.55112e-17
139 1 32.9096 94.3017 -5.55112e-17
140 2 159.273 189.039 -5.55112e-17
141 1 158.564 104.036 -5.55112e-17
142 2 175.578 22.6381 -5.55112e-17
143 1 41.37 120.49 -5.55112e-17
144 2 55.8215 1.18196 -5.55112e-17
145 1 102.605 62.1618 -5.55112e-17
146 1 143.674 34.691 -5.55112e-17
147 1 163.804 164.131 -5.55112e-17
148 1 35.2235 203.408 -5.55112e-17
149 1 59.4248 94.7223 -5.55112e-17
150 1 184.953 66.5778 -5.55112e-17
151 1 69.9101 152.504 -5.55112e-17
152 1 29.9832 130.059 -5.55112e-17
153 2 24.7742 192.86 -5.55112e-17
154 1 193.424 131.212 -5.55112e-17
155 1 169.439 187.792 -5.55112e-17
156 2 5.68016 164.913 -5.55112e-17
157 1 199.756 63.7936 -5.55112e-17
158 1 19.487 23.9947 -5.55112e-17
159 1 208.688 139.377 -5.55112e-17
160 1 16.54 198.674 -5.55112e-17
161 1 39.3456 216.809 -5.55112e-17
162 1 38.7331 120.756 -5.55112e-17
163 1 130.252 98.6544 -5.55112e-17
164 1 166.774 132.647 -5.55112e-17
165 1 168.807 197.711 -5.55112e-17
166 2 164.142 42.541 -5.55112e-17
167 1 134.6 49.4272 -5.55112e-17
168 1 148.098 199.765 -5.55112e-17
169 1 166.995 105.987 -5.55112e-17
170 1 105.622 42.7652 -5.55112e-17
171 1 198.681 111.924 -5.55112e-17
172 1 5.02312 38.3603 -5.55112e-17
173 1 32.619 156.086 -5.55112e-17
174 1 96.7509 135.58 -5.55112e-17
175 2 155.135 173.398 -5.55112e-17
176 1 68.6955 183.807 -5.55112e-17
177 2 0.340764 121.329 -5.55112e-17
178 1 52.7022 14.9518 -5.55112e-17
179 1 195.536 157.164 -5.55112e-17
180 1 217.332 5.70659 -5.55112e-17
181 1 3.55668 125.603 -5.55112e-17
182 2 200.601 216.679 -5.55112e-17
183 1 83.4945 155.548 -5.55112e-17
184 1 151.774 21.5412 -5.55112e-17
185 2 102.086 0.987898 -5.55112e-17
186 2 187.007 135.237 -5.55112e-17
187 1 98.8291 79.955 -5.55112e-17
188 1 85.5419 23.4231 -5.55112e-17
189 1 83.6133 196.453 -5.55112e-17
190 2 29.2764 170.567 -5.55112e-17
191 1 108.951 73.1207 -5.55112e-17
192 2 182.247 76.1446 -5.55112e-17
193 2 111.409 185.752 -5.55112e-17
194 1 20.2777 118.513 -5.55112e-17
195 1 202.991 166.666 -5.55112e-17
196 1 207.13 90.9067 -5.55112e-17
197 1 2.91484 69.5416 -5.55112e-17
198 2 47.9686 104.125 -5.55112e-17
199 1 203.389 50.9925 -5.55112e-17
200 1 80.0543 0.0160138 -5.55112e-17
201 2 18.319 135.662 -5.55112e-17
202 1 132.329 9.89738 -5.55112e-17
203 1 118.409 138.561 -5.55112e-17
204 1 185.706 142.072 -5.55112e-17
205 2 27.5546 83.6315 -5.55112e-17
206 1 148.241 114.723 -5.55112e-17
207 1 130.95 137.341 -5.55112e-17
208 1 29.5902 60.3751 -5.55112e-17
209 1 168 185.476 -5.55112e-17
210 1 204.031 57.5242 -5.55112e-17
211 2 140.343 199.313 -5.55112e-17
212 1 185.128 52.7933 -5.55112e-17
213 1 144.079 87.2144 -5.55112e-17
214 1 91.4536 44.5786 -5.55112e-17
215 1 101.53 202.093 -5.55112e-17
216 1 160.72 91.6568 -5.55112e-17
217 1 145.194 125.647 -5.55112e-17
218 2 1.60593 128.709 -5.55112e-17
219 1 99.1355 189.783 -5.55112e-17
220 2 78.8922 123.184 -5.55112e-17
221 1 15.1146 86.919 -5.55112e-17
222 1 120.44 126.866 -5.55112e-17
223 1 55.1861 172.164 -5.55112e-17
224 2 21.7683 8.32917 -5.55112e-17
225 1 24.1958 110.235 -5.55112e-17
226 1 4.62697 159.629 -5.55112e-17
227 2 29.6512 215.279 -5.55112e-17
228 1 113.042 148.863 -5.55112e-17
229 1 6.63712 141.088 -5.55112e-17
230 1 173.765 141.326 -5.55112e-17
231 1 128.337 101.424 -5.55112e-17
232 1 167.532 195.306 -5.55112e-17
233 1 40.8741 76.3395 -5.55112e-17
234 1 83.6517 27.8353 -5.55112e-17
235 1 154.612 58.5491 -5.55112e-17
236 1 25.0728 79.0684 -5.55112e-17
237 1 27.1583 113.62 -5.55112e-17
238 1 124.881 121.038 -5.55112e-17
239 2 26.4514 147.941 -5.55112e-17
240 1 115.971 206.955 -5.55112e-17
241 2 120.407 162.877 -5.55112e-17
242 2 9.34325 209.041 -5.55112e-17
243 2 76.231 36.7316 -5.55112e-17
244 1 48.7298 101.41 -5.55112e-17
245 1 79.8331 103.717 -5.55112e-17
246 1 136.025 136.838 -5.55112e-17
247 1 172.939 136.315 -5.55112e-17
248 1 125.02 45.4784 -5.55112e-17
249 1 217.981 26.8899 -5.55112e-17
250 2 101.582 86.8106 -5.55112e-17
251 1 89.21 46.4518 -5.55112e-17
252 1 175.728 204.914 -5.55112e-17
253 1 151.061 52.7039 -5.55112e-17
254 2 103.78 199.956 -5.55112e-17
255 1 215.518 165.69 -5.55112e-17
256 1 86.5068 180.948 -5.55112e-17
257 1 0.973711 139.856 -5.55112e-17
258 2 97.1667 33.3681 -5.55112e-17
259 1 6.8774 138.584 -5.55112e-17
260 1 141.731 103.717 -5.55112e-17
261 1 204.446 151.699 -5.55112e-17
262 1 43.6794 90.3061 -5.55112e-17
263 1 18.3183 82.9379 -5.55112e-17
264 1 187.978 155.778 -5.55112e-17
265 1 55.3457 30.5572 -5.55112e-17
266 1 160.963 46.3381 -5.55112e-17
267 1 165.353 64.607 -5.55112e-17
268 1 60.7416 53.2263 -5.55112e-17
269 1 100.149 124.281 -5.55112e-17
270 1 75.4165 81.4252 -5.55112e-17
271 1 93.6323 104.65 -5.55112e-17
272 1 196.653 137.719 -5.55112e-17
273 1 67.5627 50.3262 -5.55112e-17
274 2 158.887 129.394 -5.55112e-17
275 1 62.7026 151.816 -5.55112e-17
276 2 190.731 207.752 -5.55112e-17
277 2 147.186 56.2942 -5.55112e-17
278 1 70.0217 190.681 -5.55112e-17
279 2 98.6021 66.4763 -5.55112e-17
280 1 215.419 15.4578 -5.55112e-17
281 1 91.9363 218.175 -5.55112e-17
282 1 97.8251 185.13 -5.55112e-17
283 1 126.529 146.484 -5.55112e-17
284 1 126.587 52.834 -5.55112e-17
285 1 0.531804 191.795 -5.55112e-17
286 2 79.7288 202.796 -5.55112e-17
287 1 47.7102 76.6619 -5.55112e-17
288 1 5.85135 76.5659 -5.55112e-17
289 1 116.4 95.4489 -5.55112e-17
290 1 15.3996 201.121 -5.55112e-17
291 1 117.191 145.367 -5.55112e-17
292 2 46.0645 17.7972 -5.55112e-17
293 2 99.5855 18.6101 -5.55112e-17
294 1 114.192 48.5256 -5.55112e-17
295 1 96.296 206.985 -5.55112e-17
296 1 130.1 44.0772 -5.55112e-17
297 1 173.338 148.208 -5.55112e-17
298 1 153.477 23.1949 -5.55112e-17
299 1 126.755 94.2043 -5.55112e-17
300 2 64.7338 167.867 -5.55112e-17
301 1 36.2298 37.1398 -5.55112e-17
302 1 87.4947 153.067 -5.55112e-17
303 2 82.4251 53.7183 -5.55112e-17
304 2 147.398 156.171 -5.55112e-17
305 1 77.6406 118.333 -5.55112e-17
306 1 77.7282 39.2786 -5.55112e-17
307 1 19.0447 176.167 -5.55112e-17
308 1 70.9732 68.8896 -5.55112e-17
309 2 91.3201 135.125 -5.55112e-17
310 1 202.34 31.1705 -5.55112e-17
311 1 26.0633 53.7858 -5.55112e-17
312 1 187.473 131.777 -5.55112e-17
313 2 119.966 26.3924 -5.55112e-17
314 1 119.175 87.6929 -5.55112e-17
315 1 119.697 146.454 -5.55112e-17
316 1 193.731 66.664 -5.55112e-17
317 1 37.0648 136.538 -5.55112e-17
318 1 123.117 13.7183 -5.55112e-17
319 1 66.4618 209.974 -5.55112e-17
320 1 142.679 143.991 -5.55112e-17
321 1 24.4362 59.9219 -5.55112e-17
322 1 105.677 134.442 -5.55112e-17
323 1 187.982 174.659 -5.55112e-17
324 1 109.332 40.5054 -5.55112e-17
325 1 153.584 170.648 -5.55112e-17
326 1 82.6197 179.555 -5.55112e-17
327 2 76.1281 198.779 -5.55112e-17
328 1 175.507 49.8128 -5.55112e-17
329 2 15.837 81.7324 -5.55112e-17
330 1 197.215 151.24 -5.55112e-17
331 1 181.911 25.8106 -5.55112e-17
332 2 129.145 74.3249 -5.55112e-17
333 1 28.3944 12.5051 -5.55112e-17
334 1 98.7298 63.4775 -5.55112e-17
335 1 217.865 182.58 -5.55112e-17
336 1 3.44781 75.5253 -5.55112e-17
337 1 182.502 8.13603 -5.55112e-17
338 1 150.691 12.309 -5.55112e-17
339 1 180.537 95.5972 -5.55112e-17
340 1 181.233 86.4449 -5.55112e-17
341 1 125.454 207.104 -5.55112e-17
342 1 181.892 187.903 -5.55112e-17
343 1 145.975 101.659 -5.55112e-17
344 1 95.6887 43.3761 -5.55112e-17
345 1 10.2967 192.039 -5.55112e-17
346 1 201.716 118.951 -5.55112e-17
347 1 42.548 82.1063 -5.55112e-17
348 1 106.369 198.554 -5.55112e-17
349 1 102.707 116.636 -5.55112e-17
350 2 103.753 81.7229 -5.55112e-17
351 1 140.941 14.1222 -5.55112e-17
352 1 11.6639 138.718 -5.55112e-17
353 1 20.5127 209.688 -5.55112e-17
354 1 170.528 155.262 -5.55112e-17
355 1 87.3447 125.138 -5.55112e-17
356 1 171.503 208.722 -5.55112e-17
357 1 25.5262 179.035 -5.55112e-17
358 1 202.582 177.956 -5.55112e-17
359 1 176.693 185.949 -5.55112e-17
360 1 26.6179 122.856 -5.55112e-17
361 1 95.3586 201.676 -5.55112e-17
362 1 19.5578 18.2837 -5.55112e-17
363 1 200.28 165.274 -5.55112e-17
364 2 8.74582 77.9503 -5.55112e-17
365 1 177.924 128.774 -5.55112e-17
366 1 143.635 155.572 -5.55112e-17
367 1 54.7381 95.5605 -5.55112e-17
368 1 211.473 15.5424 -5.55112e-17
369 2 68.3258 198.861 -5.55112e-17
370 1 18.966 217.676 -5.55112e-17
371 1 32.1246 139.595 -5.55112e-17
372 2 199.439 32.919 -5.55112e-17
373 2 141.293 209.134 -5.55112e-17
374 1 142.172 46.7306 -5.55112e-17
375 1 190.098 135.962 -5.55112e-17
376 1 79.9009 184.257 -5.55112e-17
377 1 201.913 78.2207 -5.55112e-17
378 1 74.425 188.356 -5.55112e-17
379 1 218.659 81.2588 -5.55112e-17
380 1 175.274 128.885 -5.55112e-17
381 1 23.6575 141.903 -5.55112e-17
382 1 58.8305 111.064 -5.55112e-17
383 1 56.911 88.8038 -5.55112e-17
384 1 37.3322 11.4995 -5.55112e-17
385 1 178.044 76.0335 -5.55112e-17
386 2 66.0723 17.1029 -5.55112e-17
387 1 181.16 3.13971 -5.55112e-17
388 1 62.721 131.78 -5.55112e-17
389 1 90.6693 195.622 -5.55112e-17
390 2 211.824 155.018 -5.55112e-17
391 2 9.10486 181.922 -5.55112e-17
392 1 116.451 188.645 -5.55112e-17
393 1 43.2379 102.856 -5.55112e-17
394 1 67.5743 116.665 -5.55112e-17
395 1 30.9161 19.1153 -5.55112e-17
396 1 196.773 140.601 -5.55112e-17
397 1 140.716 101.316 -5.55112e-17
398 1 208.124 144.311 -5.55112e-17
399 1 170.299 11.2712 -5.55112e-17
400 1 83.4555 108.728 -5.55112e-17
401 1 87.5497 2.63933 -5.55112e-17
402 2 24.6308 125.065 -5.55112e-17
403 1 178.141 21.4083 -5.55112e-17
404 1 18.0427 79.8124 -5.55112e-17
405 1 18.4153 132.529 -5.55112e-17
406 1 182.996 42.0636 -5.55112e-17
407 2 21.1606 39.7992 -5.55112e-17
408 1 17.1132 2.72619 -5.55112e-17
409 1 26.7508 96.0243 -5.55112e-17
410 1 58.7246 0.246366 -5.55112e-17
411 1 178.754 147.213 -5.55112e-17
412 1 82.7682 48.2991 -5.55112e-17
413 1 69.674 97.4514 -5.55112e-17
414 1 185.322 33.6102 -5.55112e-17
415 1 172.933 159.747 -5.55112e-17
416 1 41.3193 23.8066 -5.55112e-17
417 1 146.915 74.8984 -5.55112e-17
418 2 174.499 188.218 -5.55112e-17
419 1 138.123 125.134 -5.55112e-17
420 2 164.158 95.1273 -5.55112e-17
421 1 212.82 124.373 -5.55112e-17
422 1 97.3137 48.3123 -5.55112e-17
423 2 177.023 178.815 -5.55112e-17
424 1 85.6982 210.969 -5.55112e-17
425 1 132.023 198.962 -5.55112e-17
426 1 155.411 146.463 -5.55112e-17
427 1 130.536 103.723 -5.55112e-17
428 1 88.8983 173.459 -5.55112e-17
429 1 185.323 149.014 -5.55112e-17
430 1 146.823 216.742 -5.55112e-17
431 1 160.355 161.886 -5.55112e-17
432 1 125.384 12.5462 -5.55112e-17
433 1 110.129 166.778 -5.55112e-17
434 1 31.2121 62.4171 -5.55112e-17
435 1 136.84 132.419 -5.55112e-17
436 1 96.1001 23.7243 -5.55112e-17
437 1 206.4 138.634 -5.55112e-17
438 2 131.769 86.9192 -5.55112e-17
439 1 85.3021 58.8312 -5.55112e-17
440 1 155.067 76.0223 -5.55112e-17
441 1 202.155 161.41 -5.55112e-17
442 1 97.3793 8.54675 -5.55112e-17
443 1 197.026 56.9626 -5.55112e-17
444 1 141.771 57.1231 -5.55112e-17
445 1 111.126 89.0517 -5.55112e-17
446 1 178.494 104.701 -5.55112e-17
447 1 39.719 19.4333 -5.55112e-17
448 1 83.0438 23.0129 -5.55112e-17
449 1 162.161 122.112 -5.55112e-17
450 1 143.583 211.29 -5.55112e-17
451 1 152.887 13.6813 -5.55112e-17
452 1 138.882 155.297 -5.55112e-17
453 1 194.025 152.196 -5.55112e-17
454 1 7.30965 196.47 -5.55112e-17
455 1 137.392 75.0366 -5.55112e-17
456 1 195.103 190.737 -5.55112e-17
457 1 0.509019 58.8517 -5.55112e-17
458 1 167.986 166.331 -5.55112e-17
459 1 9.52458 20.7383 -5.55112e-17
460 1 164.904 101.135 -5.55112e-17
461 1 193.511 161.455 -5.55112e-17
462 1 38.9941 135.243 -5.55112e-17
463 1 104.151 71.9038 -5.55112e-17
464 1 137.773 194.469 -5.55112e-17
465 1 172.192 139.452 -5.55112e-17
466 1 88.6739 110.153 -5.55112e-17
467 1 35.0577 41.3748 -5.55112e-17
468 1 204.551 162.031 -5.55112e-17
469 1 66.5204 87.5785 -5.55112e-17
470 1 85.6875 39.5675 -5.55112e-17
471 1 129.812 199.451 -5.55112e-17
472 1 19.8656 29.7494 -5.55112e-17
473 1 111.885 111.182 -5.55112e-17
474 1 97.7925 162.892 -5.55112e-17
475 1 78.7962 186.575 -5.55112e-17
476 2 189.737 216.426 -5.55112e-17
477 1 165.907 69.8061 -5.55112e-17
478 1 209.626 171.872 -5.55112e-17
479 1 204.738 196.644 -5.55112e-17
480 1 37.9553 17.4162 -5.55112e-17
481 1 72.3464 158.702 -5.55112e-17
482 1 140.553 129.707 -5.55112e-17
483 1 114.642 164.745 -5.55112e-17
484 2 90.5855 78.9223 -5.55112e-17
485 1 41.6271 218.742 -5.55112e-17
486 1 53.5691 45.6524 -5.55112e-17
487 1 66.294 196.646 -5.55112e-17
488 1 32.3701 80.9477 -5.55112e-17
489 1 131.067 101.2 -5.55112e-17
490 1 26.2458 13.8789 -5.55112e-17
491 1 153.398 106.851 -5.55112e-17
492 1 37.6673 141.355 -5.55112e-17
493 1 156.169 170.628 -5.55112e-17
494 1 160.496 145.457 -5.55112e-17
495 1 111.625 35.7773 -5.55112e-17
496 2 79.3408 5.44104 -5.55112e-17
497 1 205.742 14.9624 -5.55112e-17
498 1 107.249 162.879 -5.55112e-17
499 2 108.897 213.889 -5.55112e-17
500 1 144.128 216.539 -5.55112e-17
501 2 142.2 8.47485 -5.55112e-17
502 2 140.306 168.464 -5.55112e-17
503 1 135.094 177.605 -5.55112e-17
504 1 105.2 126.893 -5.55112e-17
505 1 166.272 208.503 -5.55112e-17
506 1 67.9575 156.307 -5.55112e-17
507 1 89.411 141.656 -5.55112e-17
508 1 134.848 26.1577 -5.55112e-17
509 2 30.8836 37.8196 -5.55112e-17
510 2 164.378 130.308 -5.55112e-17
511 1 123.368 97.1037 -5.55112e-17
512 2 30.0463 45.7789 -5.55112e-17
513 1 51.7071 199.263 -5.55112e-17
514 1 77.8497 96.8578 -5.55112e-17
515 1 0.448185 180.488 -5.55112e-17
516 1 42.866 170.195 -5.55112e-17
517 1 148.336 111.985 -5.55112e-17
518 2 93.9155 85.4893 -5.55112e-17
519 1 18.4791 51.3626 -5.55112e-17
520 2 23.0922 54.5674 -5.55112e-17
521 1 191.731 112.58 -5.55112e-17
522 1 34.5359 7.70139 -5.55112e-17
523 1 5.61401 151.635 -5.55112e-17
524 1 60.3734 70.4114 -5.55112e-17
525 1 48.7831 202.599 -5.55112e-17
526 1 114.632 62.5348 -5.55112e-17
527 1 71.5572 6.84284 -5.55112e-17
528 1 122.928 31.4261 -5.55112e-17
529 1 29.0883 123.119 -5.55112e-17
530 1 177.747 73.3587 -5.55112e-17
531 1 84.0743 148.274 -5.55112e-17
532 1 107.907 7.37914 -5.55112e-17
533 1 71.5369 137.853 -5.55112e-17
534 1 105.232 161.326 -5.55112e-17
535 1 191.041 138.567 -5.55112e-17
536 1 169.909 96.2227 -5.55112e-17
537 1 177.476 181.57 -5.55112e-17
538 1 114.658 52.8739 -5.55112e-17
539 1 63.9555 35.3755 -5.55112e-17
540 1 151.475 80.2377 -5.55112e-17
541 1 93.3211 203.735 -5.55112e-17
542 1 121.883 70.6707 -5.55112e-17
543 1 104.305 174.658 -5.55112e-17
544 1 147.389 186.989 -5.55112e-17
545 1 7.23171 158.899 -5.55112e-17
546 1 189.297 6.45445 -5.55112e-17
547 1 12.1134 109.271 -5.55112e-17
548 1 47.6974 146.73 -5.55112e-17
549 1 15.818 52.0029 -5.55112e-17
550 2 212.909 166.913 -5.55112e-17
551 2 125.004 99.5525 -5.55112e-17
552 2 162.168 201.944 -5.55112e-17
553 1 165.581 35.1398 -5.55112e-17
554 1 0.714405 65.1695 -5.55112e-17
555 2 199.121 59.169 -5.55112e-17
556 1 113.065 30.6895 -5.55112e-17
557 1 72.7583 45.5593 -5.55112e-17
558 1 159.635 154.588 -5.55112e-17
559 1 170.832 21.799 -5.55112e-17
560 1 112.752 90.9859 -5.55112e-17
561 1 169.899 159.409 -5.55112e-17
562 1 161.168 156.778 -5.55112e-17
563 2 171.16 162.226 -5.55112e-17
564 1 24.214 23.7374 -5.55112e-17
565 1 89.1776 197.662 -5.55112e-17
566 1 73.186 90.2559 -5.55112e-17
567 1 191.514 73.2145 -5.55112e-17
568 1 72.9781 177.464 -5.55112e-17
569 1 50.1854 131.207 -5.55112e-17
570 1 104.007 139.539 -5.55112e-17
571 1 193.454 164.142 -5.55112e-17
572 1 126.255 106.598 -5.55112e-17
573 1 167.471 55.5953 -5.55112e-17
574 1 176.51 126.78 -5.55112e-17
575 1 210.533 64.6233 -5.55112e-17
576 1 197.681 95.086 -5.55112e-17
577 1 143.283 190.449 -5.55112e-17
578 1 174.371 178.683 -5.55112e-17
579 1 4.11766 30.712 -5.55112e-17
580 1 147.096 40.9395 -5.55112e-17
581 1 193.903 144.469 -5.55112e-17
582 1 199.395 13.0959 -5.55112e-17
583 1 164.685 214.323 -5.55112e-17
584 2 33.5715 188.531 -5.55112e-17
585 1 47.6167 93.9679 -5.55112e-17
586 1 105.185 1.54081 -5.55112e-17
587 1 191.093 37.6611 -5.55112e-17
588 1 74.0516 145.867 -5.55112e-17
589 1 107.722 1.97156 -5.55112e-17
590 1 61.9213 13.1606 -5.55112e-17
591 1 31.2888 212.718 -5.55112e-17
592 1 216.384 113.973 -5.55112e-17
593 1 198.037 183.214 -5.55112e-17
594 1 16.0667 179.357 -5.55112e-17
595 1 78.5879 84.3645 -5.55112e-17
596 1 181.454 44.1554 -5.55112e-17
597 2 187.774 24.0563 -5.55112e-17
598 1 198.548 2.8287 -5.55112e-17
599 1 215.288 18.5403 -5.55112e-17
600 1 146.28 21.5506 -5.55112e-17
601 1 44.3675 180.453 -5.55112e-17
602 1 103.281 7.25675 -5.55112e-17
603 1 12.1952 190.212 -5.55112e-17
604 1 101.822 174.459 -5.55112e-17
605 2 99.1753 137.753 -5.55112e-17
606 1 157.886 161.38 -5.55112e-17
607 2 167.879 154.438 -5.55112e-17
608 1 126.452 126.5 -5.55112e-17
609 1 73.8036 175.22 -5.55112e-17
610 1 177.105 138.478 -5.55112e-17
611 1 50.2689 172.703 -5.55112e-17
612 1 18.4658 74.3217 -5.55112e-17
613 1 187.843 117.087 -5.55112e-17
614 2 198.168 169.911 -5.55112e-17
615 1 63.6005 213.728 -5.55112e-17
616 1 177.602 118.261 -5.55112e-17
617 1 90.508 184.937 -5.55112e-17
618 1 173.978 166.53 -5.55112e-17
619 1 150.582 124.569 -5.55112e-17
620 1 106.684 17.2844 -5.55112e-17
621 1 149.942 103.381 -5.55112e-17
622 1 118.655 178.57 -5.55112e-17
623 1 193.606 180.839 -5.55112e-17
624 1 22.0415 19.7603 -5.55112e-17
625 1 149.596 75.5017 -5.55112e-17
626 1 60.9113 17.5775 -5.55112e-17
627 1 89.5114 105.69 -5.55112e-17
628 1 81.6 13.0028 -5.55112e-17
629 1 45.6682 157.612 -5.55112e-17
630 2 137.827 53.7295 -5.55112e-17
631 1 39.0145 91.6769 -5.55112e-17
632 1 82.7194 129.236 -5.55112e-17
633 1 34.1274 0.163955 -5.55112e-17
634 1 140.711 71.5595 -5.55112e-17
635 1 132.805 151.75 -5.55112e-17
636 1 142.662 76.345 -5.55112e-17
637 1 205.082 30.3088 -5.55112e-17
638 1 182.993 33.6509 -5.55112e-17
639 2 63.7989 62.3904 -5.55112e-17
640 1 156.19 156.341 -5.55112e-17
641 1 207.87 108.6 -5.55112e-17
642 1 161.465 43.7476 -5.55112e-17
643 2 167.243 44.762 -5.55112e-17
644 1 69.373 7.97758 -5.55112e-17
645 1 85.5332 194.752 -5.55112e-17
646 2 18.5211 159.36 -5.55112e-17
647 1 122.121 28.8539 -5.55112e-17
648 1 192.759 95.8428 -5.55112e-17
649 2 46.3704 109.636 -5.55112e-17
650 1 28.5798 167.458 -5.55112e-17
651 1 35.3725 134.906 -5.55112e-17
652 1 186.411 178.791 -5.55112e-17
653 1 200.302 0.715717 -5.55112e-17
654 1 210.995 13.0919 -5.55112e-17
655 2 9.31391 109.11 -5.55112e-17
656 1 39.9014 208.937 -5.55112e-17
657 2 77.1924 31.4646 -5.55112e-17
658 1 201.718 57.7459 -5.55112e-17
659 2 200.134 175.724 -5.55112e-17
660 1 57.4279 20.3834 -5.55112e-17
661 1 65.6552 145.302 -5.55112e-17
662 1 47.9513 79.0983 -5.55112e-17
663 1 69.3856 12.8432 -5.55112e-17
664 1 95.9402 79.9814 -5.55112e-17
665 1 152.669 56.7127 -5.55112e-17
666 2 98.4155 212.692 -5.55112e-17
667 1 134.818 46.6956 -5.55112e-17
668 2 134.154 108.356 -5.55112e-17
669 1 122.208 92.4038 -5.55112e-17
670 1 176.156 210.258 -5.55112e-17
671 2 59.8377 158.693 -5.55112e-17
672 1 110.843 42.5164 -5.55112e-17
673 1 8.76968 42.3698 -5.55112e-17
674 1 15.9677 145.584 -5.55112e-17
675 1 132.137 75.0194 -5.55112e-17
676 1 156.965 148.226 -5.55112e-17
677 1 116.537 191.317 -5.55112e-17
678 1 77.1613 7.5284 -5.55112e-17
679 2 160.832 172.718 -5.55112e-17
680 1 1.30914 20.3044 -5.55112e-17
681 2 166.063 211.808 -5.55112e-17
682 1 213.252 17.0775 -5.55112e-17
683 1 43.405 16.1811 -5.55112e-17
684 1 121.481 198.635 -5.55112e-17
685 1 163.231 50.5055 -5.55112e-17
686 1 94.2549 78.4175 -5.55112e-17
687 1 150.882 184.077 -5.55112e-17
688 1 205.599 116.061 -5.55112e-17
689 2 61.1897 26.5688 -5.55112e-17
690 1 100.409 42.0779 -5.55112e-17
691 1 47.5291 46.805 -5.55112e-17
692 1 101.134 152.607 -5.55112e-17
693 1 111.32 13.9915 -5.55112e-17
694 1 86.1775 173.826 -5.55112e-17
695 1 201.927 96.8917 -5.55112e-17
696 1 115.628 137.915 -5.55112e-17
697 1 125.677 188.153 -5.55112e-17
698 1 158.204 64.271 -5.55112e-17
699 1 10.9466 163.172 -5.55112e-17
700 1 51.161 51.6162 -5.55112e-17
701 1 216.379 53.1067 -5.55112e-17
702 1 40.0234 58.4543 -5.55112e-17
703 2 22.0804 130.706 -5.55112e-17
704 1 48.1916 182.544 -5.55112e-17
705 2 161.92 107.517 -5.55112e-17
706 1 86.379 158.535 -5.55112e-17
707 1 120.648 57.3605 -5.55112e-17
708 1 74.2745 163.056 -5.55112e-17
709 1 187.653 191.509 -5.55112e-17
710 1 198.063 114.441 -5.55112e-17
711 1 123.9 158.101 -5.55112e-17
712 1 208.677 126.997 -5.55112e-17
713 1 151.202 162.69 -5.55112e-17
714 1 110.468 66.5449 -5.55112e-17
715 1 1.02778 6.50045 -5.55112e-17
716 1 85.691 138.285 -5.55112e-17
717 1 197.723 102.516 -5.55112e-17
718 1 197.775 177.331 -5.55112e-17
719 2 51.7412 88.1173 -5.55112e-17
720 1 118.849 78.1662 -5.55112e-17
721 1 160.698 63.7795 -5.55112e-17
722 1 84.634 104.002 -5.55112e-17
723 2 202.849 54.4195 -5.55112e-17
724 1 15.1353 13.2232 -5.55112e-17
725 1 17.0716 47.0213 -5.55112e-17
726 1 103.101 111.126 -5.55112e-17
727 1 189.485 170.117 -5.55112e-17
728 2 22.7508 104.989 -5.55112e-17
729 1 122.665 171.719 -5.55112e-17
730 1 90.9612 175.23 -5.55112e-17
731 1 70.7988 216.117 -5.55112e-17
732 1 20.4287 45.6522 -5.55112e-17
733 1 61.9612 23.6468 -5.55112e-17
734 1 113.668 15.3859 -5.55112e-17
735 1 23.891 49.2946 -5.55112e-17
736 2 0.201735 67.9647 -5.55112e-17
737 1 174.683 82.8651 -5.55112e-17
738 1 14.9198 183.421 -5.55112e-17
739 1 123.721 192.296 -5.55112e-17
740 1 55.5603 136.276 -5.55112e-17
741 2 211.827 46.2181 -5.55112e-17
742 1 46.3679 59.6102 -5.55112e-17
743 1 109.418 90.6103 -5.55112e-17
744 2 199.475 153.333 -5.55112e-17
745 1 111.141 11.4175 -5.55112e-17
746 1 15.8282 205.366 -5.55112e-17
747 2 218.164 30.0265 -5.55112e-17
748 1 95.4348 211.226 -5.55112e-17
749 1 216.461 194.736 -5.55112e-17
750 1 24.179 149.657 -5.55112e-17
751 1 61.0302 91.1286 -5.55112e-17
752 1 126.749 216.758 -5.55112e-17
753 1 140.973 160.333 -5.55112e-17
754 1 215.25 190.171 -5.55112e-17
755 1 128.073 189.326 -5.55112e-17
756 2 130.83 202.146 -5.55112e-17
757 1 204.99 177.66 -5.55112e-17
758 1 47.7928 173.838 -5.55112e-17
759 1 83.6941 162.656 -5.55112e-17
760 1 137.1 107.71 -5.55112e-17
761 1 95.1074 8.70076 -5.55112e-17
762 1 206.92 47.8605 -5.55112e-17
763 1 67.3455 119.27 -5.55112e-17
764 2 144.671 165.087 -5.55112e-17
765 1 37.0562 77.3869 -5.55112e-17
766 1 90.3563 38.0149 -5.55112e-17
767 1 67.1582 76.9783 -5.55112e-17
768 1 145.919 2.53456 -5.55112e-17
769 1 65.7088 81.8541 -5.55112e-17
770 2 47.011 99.4138 -5.55112e-17
771 1 165.467 166.22 -5.55112e-17
772 1 100.329 89.2982 -5.55112e-17
773 1 94.7796 176.388 -5.55112e-17
774 1 147.788 129.566 -5.55112e-17
775 1 161.058 20.4315 -5.55112e-17
776 1 63.1951 46.8785 -5.55112e-17
777 1 190.621 177.667 -5.55112e-17
778 1 209.237 186.131 -5.55112e-17
779 1 187.11 196.155 -5.55112e-17
780 1 186.572 139.68 -5.55112e-17
781 1 27.9789 103.943 -5.55112e-17
782 1 178.271 53.9689 -5.55112e-17
783 1 139.371 0.441396 -5.55112e-17
784 2 206.708 94.0849 -5.55112e-17
785 1 97.529 209.328 -5.55112e-17
786 1 120.155 171.595 -5.55112e-17
787 1 179.499 196.608 -5.55112e-17
788 1 176.446 33.8829 -5.55112e-17
789 2 0.939227 106.767 -5.55112e-17
790 1 51.3548 36.0345 -5.55112e-17
791 2 4.89776 143.356 -5.55112e-17
792 2 8.5018 11.294 -5.55112e-17
793 2 106.004 69.2142 -5.55112e-17
794 1 77.0371 12.4917 -5.55112e-17
795 1 163.723 45.428 -5.55112e-17
796 1 63.972 11.7083 -5.55112e-17
797 1 147.416 132.119 -5.55112e-17
798 2 199.957 5.28908 -5.55112e-17
799 2 11.1064 75.4396 -5.55112e-17
800 2 125.309 22.6097 -5.55112e-17
801 1 46.4249 127.113 -5.55112e-17
802 1 56.1805 91.3246 -5.55112e-17
803 1 182.272 73.3003 -5.55112e-17
804 2 114.284 85.515 -5.55112e-17
805 1 25.687 76.3267 -5.55112e-17
806 1 47.4854 138.54 -5.55112e-17
807 2 117.456 53.0341 -5.55112e-17
808 1 27.3319 91.0668 -5.55112e-17
809 2 139.777 63.766 -5.55112e-17
810 1 126.775 40.8496 -5.55112e-17
811 1 6.58225 4.16521 -5.55112e-17
812 1 133.132 7.08115 -5.55112e-17
813 2 139.688 132.54 -5.55112e-17
814 1 113.69 157.923 -5.55112e-17
815 1 135.725 152.449 -5.55112e-17
816 1 28.0774 32.534 -5.55112e-17
817 1 146.452 194.024 -5.55112e-17
818 1 70.8437 197.326 -5.55112e-17
819 1 79.1504 156.765 -5.55112e-17
820 1 0.985489 150.137 -5.55112e-17
821 1 70.8557 140.214 -5.55112e-17
822 2 22.1511 183.339 -5.55112e-17
823 2 61.7465 120.483 -5.55112e-17
824 1 74.5945 72.3455 -5.55112e-17
825 1 217.044 203.597 -5.55112e-17
826 1 34.7884 176.365 -5.55112e-17
827 1 201.959 151.573 -5.55112e-17
828 1 170.651 90.1477 -5.55112e-17
829 1 215.448 216.426 -5.55112e-17
830 1 49.1385 114.835 -5.55112e-17
831 1 181.379 212.396 -5.55112e-17
832 1 19.058 55.7222 -5.55112e-17
833 1 52.8356 31.2521 -5.55112e-17
834 1 58.8168 200.109 -5.55112e-17
835 1 183.887 211.456 -5.55112e-17
836 1 0.687797 71.4378 -5.55112e-17
837 1 56.7464 93.8106 -5.55112e-17
838 1 217.337 16.8485 -5.55112e-17
839 2 188.879 145.803 -5.55112e-17
840 1 96.8099 73.8787 -5.55112e-17
841 2 89.202 217.369 -5.55112e-17
842 1 24.1944 15.5569 -5.55112e-17
843 2 164.526 148.925 -5.55112e-17
844 1 26.0923 11.1934 -5.55112e-17
845 1 61.8539 175.586 -5.55112e-17
846 1 96.9172 1.21241 -5.55112e-17
847 1 24.0651 176.717 -5.55112e-17
848 1 102.968 76.9667 -5.55112e-17
849 1 176.991 91.0946 -5.55112e-17
850 1 54.1937 174.588 -5.55112e-17
851 1 90.5476 29.7592 -5.55112e-17
852 1 34.3303 171.63 -5.55112e-17
853 1 83.8535 136.491 -5.55112e-17
854 1 72.5864 101.86 -5.55112e-17
855 1 138.636 95.3577 -5.55112e-17
856 1 122.555 152.649 -5.55112e-17