ITEM: TIMESTEP
0
ITEM: NUMBER OF ATOMS
7200
ITEM: BOX BOUNDS xy xz yz pp pp pp
0.0000000000000000e+00 7.7459666924100006e+01 0.0000000000000000e+00
0.0000000000000000e+00 7.7459666924100006e+01 0.0000000000000000e+00
-1.2909944490000000e-01 1.2909944490000000e-01 0.0000000000000000e+00
ITEM: ATOMS id type x y z
1 1 10.4574 19.5702 0
2 1 23.0926 1.57293 0
3 1 6.2917 75.722 0
4 1 35.5708 16.7712 0
5 1 19.9459 64.1905 0
6 1 66.0942 31.0715 0
7 2 68.3764 10.0738 0
8 2 55.4485 44.6771 0
9 1 36.4848 64.5628 0
10 2 40.0735 7.05749 0
11 2 25.0183 52.0341 0
12 1 49.3364 18.4549 0
13 2 31.4932 3.77718 0
14 1 52.6893 70.3908 0
15 1 29.4541 43.4062 0
16 1 27.7759 26.3797 0
17 1 20.4332 43.7654 0
18 1 40.3076 14.7965 0
19 1 24.3804 64.3596 0
20 2 46.6795 68.3252 0
21 1 11.1008 0.295925 0
22 1 54.1668 32.1621 0
23 1 70.8277 50.5075 0
24 1 47.0455 0.360887 0
25 1 1.73893 68.1655 0
26 1 27.4999 62.3438 0
27 2 34.7088 68.0965 0
28 1 43.052 56.5464 0
29 2 8.75848 39.9224 0
30 2 32.9562 35.1331 0
31 1 10.0012 50.3733 0
32 1 68.6659 41.0067 0
33 1 71.8487 44.8723 0
34 2 59.7776 8.96163 0
35 1 73.1153 57.3527 0
36 1 17.4866 52.773 0
37 1 17.7966 65.1535 0
38 1 65.5249 15.2911 0
39 1 14.5284 73.0328 0
40 2 24.0015 53.1655 0
41 2 17.7097 74.9225 0
42 1 10.6135 14.1177 0
43 1 13.6898 10.5853 0
44 1 13.8299 0.123619 0
45 1 74.2728 42.4811 0
46 1 49.7884 46.2046 0
47 1 70.7683 58.0849 0
48 1 38.037 61.9865 0
49 2 64.6575 76.0589 0
50 1 12.9094 65.8482 0
51 1 75.6931 24.9551 0
52 2 43.7822 25.0666 0
53 1 67.2555 12.2117 0
54 1 40.5095 20.9102 0
55 1 1.97868 67.1417 0
56 1 48.5011 24.8169 0
57 1 69.8581 45.521 0
58 1 4.57752 68.0573 0
59 1 25.4243 8.45922 0
60 1 22.8122 15.8473 0
61 1 33.0114 62.6918 0
62 1 39.1549 42.0189 0
63 1 52.832 10.6012 0
64 1 53.1108 34.8479 0
65 1 60.8562 59.1499 0
66 2 74.2474 5.04453 0
67 2 44.8475 37.5949 0
68 2 29.2297 19.4926 0
69 1 71.1641 36.606 0
70 1 2.80581 37.7116 0
71 2 13.496 53.1465 0
72 1 75.3344 1.62714 0
73 1 18.0234 76.476 0
74 2 35.6889 32.7699 0
75 1 52.5334 53.1602 0
76 1 13.4162 48.5445 0
77 1 24.9076 4.20894 0
78 1 74.7413 71.9314 0
79 1 60.8275 65.9168 0
80 1 31.6964 15.8217 0
81 1 54.3688 56.5905 0
82 2 42.1677 22.6316 0
83 1 10.9561 34.8574 0
84 1 41.6192 43.12 0
85 1 43.0029 22.2219 0
86 2 46.3927 70.0457 0
87 1 68.2189 30.1082 0
88 1 8.82938 52.4919 0
89 1 27.7153 15.9221 0
90 1 26.5656 55.5186 0
91 2 62.5311 31.358 0
92 2 44.391 49.0103 0
93 1 43.7795 43.0905 0
94 1 27.8143 57.0396 0
95 2 43.0852 54.1049 0
96 1 60.4814 68.5814 0
97 1 50.6128 47.7416 0
98 2 2.97515 61.8003 0
99 1 44.5572 41.2138 0
100 2 41.3697 33.6101 0
101 1 52.5872 44.2236 0
102 1 71.7917 19.8431 0
103 1 42.8322 64.1551 0
104 1 30.6847 59.3533 0
105 2 41.1747 14.5733 0
106 2 38.6625 38.9283 0
107 1 13.851 36.8445 0
108 1 9.91355 73.3292 0
109 1 38.6266 26.2198 0
110 2 62.2554 23.7069 0
111 1 60.1792 33.0495 0
112 1 34.5942 3.83545 0
113 2 6.40886 52.8168 0
114 2 8.14156 35.0096 0
115 2 39.8322 23.873 0
116 2 75.6442 51.07 0
117 1 16.9416 66.5066 0
118 2 66.8819 26.4965 0
119 1 62.9559 76.948 0
120 2 1.10921 48.041 0
121 1 12.565 73.4692 0
122 1 28.1088 48.4743 0
123 2 9.76805 2.17759 0
124 1 51.7239 68.3071 0
125 1 37.8536 49.1426 0
126 1 56.023 40.128 0
127 1 11.6424 59.9724 0
128 1 18.0948 17.6689 0
129 1 16.2167 61.8895 0
130 1 63.5041 57.9383 0
131 1 48.7974 26.5265 0
132 2 28.9187 51.1817 0
133 2 76.1733 1.44814 0
134 1 34.9537 49.4548 0
135 1 39.5336 22.7719 0
136 2 46.9274 33.4043 0
137 1 58.9029 53.9523 0
138 2 0.461925 54.2532 0
139 1 68.5897 7.60901 0
140 1 3.7272 16.9882 0
141 2 36.1095 63.7806 0
142 1 20.1929 12.4149 0
143 2 34.1156 69.4179 0
144 2 50.0764 73.911 0
145 2 76.8968 62.9413 0
146 1 58.5962 18.8121 0
147 1 38.163 41.3912 0
148 1 45.312 51.9113 0
149 2 58.6419 48.9192 0
150 1 30.5749 72.436 0
151 2 34.5146 76.8136 0
152 1 54.0033 50.9132 0
153 2 18.5648 69.727 0
154 2 26.8243 4.30096 0
155 1 69.0417 60.8525 0
156 1 32.8687 7.97695 0
157 1 43.4929 67.035 0
158 1 60.541 60.5217 0
159 2 8.38044 26.3103 0
160 1 30.6764 17.747 0
161 1 12.785 67.7924 0
162 2 0.0976034 17.3353 0
163 1 37.0224 38.4472 0
164 1 69.1677 6.72331 0
165 1 6.88848 17.9925 0
166 1 4.65606 45.9368 0
167 1 37.6596 5.03028 0
168 1 47.2269 74.6814 0
169 1 61.4834 24.1083 0
170 1 64.3972 4.86747 0
171 2 41.7858 58.0104 0
172 2 37.4268 68.7733 0
173 2 42.0987 19.7889 0
174 2 17.6497 44.9099 0
175 2 34.6049 27.705 0
176 1 40.8468 16.4634 0
177 1 29.295 53.8307 0
178 1 45.1579 67.4572 0
179 1 61.1029 15.2197 0
180 2 17.4562 24.4542 0
181 1 59.8948 19.5094 0
182 1 63.4729 1.47153 0
183 2 6.65961 26.7255 0
184 1 10.1314 75.0206 0
185 2 3.79084 31.5065 0
186 1 58.805 26.4012 0
187 1 25.5758 47.0898 0
188 1 58.856 47.9233 0
189 2 54.9959 42.3267 0
190 1 24.8544 74.4599 0
191 1 61.8215 6.28094 0
192 1 68.6124 22.0754 0
193 2 12.4149 38.9969 0
194 2 61.3347 65.0537 0
195 1 8.15048 2.88171 0
196 2 40.8064 27.8123 0
197 2 27.388 21.5796 0
198 1 12.0102 67.1141 0
199 2 57.0891 64.4546 0
200 1 65.1877 34.2268 0
201 2 29.7553 74.5628 0
202 2 71.8455 65.4111 0
203 1 48.8673 75.7615 0
204 1 33.7874 7.53902 0
205 1 75.0852 4.96892 0
206 2 34.3606 31.6207 0
207 2 16.2331 73.9561 0
208 1 40.1758 27.2372 0
209 1 11.104 6.63752 0
210 2 13.538 22.4661 0
211 1 3.23578 73.647 0
212 2 33.2616 5.85529 0
213 2 71.5944 12.4669 0
214 1 73.9596 54.1134 0
215 2 9.45317 17.3382 0
216 1 11.1571 75.0196 0
217 1 54.4372 42.9838 0
218 2 66.7236 52.6582 0
219 2 1.07844 41.9493 0
220 2 34.826 62.901 0
221 1 23.8542 39.7411 0
222 1 51.6077 18.76 0
223 2 35.2922 8.59812 0
224 2 28.9304 9.09867 0
225 1 34.8309 24.096 0
226 2 64.7409 60.2256 0
227 2 11.0073 4.76269 0
228 1 19.0676 19.1447 0
229 1 3.68781 20.7525 0
230 1 35.4756 0.829434 0
231 1 3.3094 46.6507 0
232 1 48.8527 20.1134 0
233 1 38.0343 21.8634 0
234 1 74.4476 2.27598 0
235 1 46.8226 55.8836 0
236 2 26.315 76.2937 0
237 1 52.864 49.3592 0
238 2 12.0282 31.3505 0
239 1 45.1158 6.94755 0
240 2 71.0218 66.1009 0
241 1 51.9746 49.963 0
242 1 23.3314 35.2736 0
243 1 14.4765 56.3328 0
244 1 55.3644 57.0511 0
245 1 16.7097 35.6413 0
246 1 67.7605 41.7224 0
247 1 61.9168 65.7916 0
248 1 13.5996 73.6411 0
249 2 63.3429 42.9983 0
250 1 31.67 16.968 0
251 2 44.7793 45.7488 0
252 2 53.7469 34.0004 0
253 1 35.3406 23.1935 0
254 1 62.0759 19.5125 0
255 1 77.4559 49.6503 0
256 1 41.1585 75.9897 0
257 1 14.2367 66.7541 0
258 1 14.2563 49.4288 0
259 1 52.4677 61.1727 0
260 2 30.1973 42.9392 0
261 2 30.2505 68.8214 0
262 1 32.5332 30.9269 0
263 2 1.8138 33.2758 0
264 2 8.13225 46.4838 0
265 1 70.1723 52.858 0
266 1 22.4691 40.859 0
267 2 75.8902 29.2951 0
268 2 56.5975 42.0825 0
269 1 53.811 33.1428 0
270 2 3.67039 57.2899 0
271 2 15.033 33.7414 0
272 2 40.9832 19.4049 0
273 1 25.696 5.74642 0
274 1 35.7672 69.9079 0
275 1 76.7826 62.0468 0
276 1 4.42769 14.8029 0
277 2 10.3402 51.165 0
278 1 6.89519 10.7053 0
279 1 6.98793 49.2863 0
280 1 18.2168 39.0904 0
281 1 37.0949 41.0299 0
282 2 4.5329 21.0454 0
283 1 4.27263 62.2859 0
284 2 52.3012 38.9853 0
285 1 75.5046 33.3401 0
286 1 21.2871 52.225 0
287 1 7.34746 20.5907 0
288 2 75.3722 72.6578 0
289 2 33.4173 43.6037 0
290 2 0.978455 14.7839 0
291 1 19.8772 25.3322 0
292 1 32.3141 48.6606 0
293 1 54.669 7.4821 0
294 1 41.5698 73.7636 0
295 1 69.9474 3.02298 0
296 2 10.4893 18.7046 0
297 1 52.5453 51.687 0
298 1 72.5626 28.632 0
299 2 57.6268 30.6423 0
300 1 36.8199 49.2838 0
301 1 72.6438 16.5704 0
302 1 66.9346 48.2355 0
303 1 9.44185 26.4686 0
304 1 53.1916 73.9427 0
305 2 61.0135 76.4961 0
306 1 55.6522 41.7296 0
307 2 65.5041 25.5873 0
308 1 50.4873 3.23955 0
309 2 13.9236 21.0971 0
310 2 66.3541 16.9513 0
311 1 20.1123 56.5983 0
312 1 2.47234 66.2472 0
313 1 1.06245 5.70132 0
314 1 61.9814 41.6592 0
315 2 64.2088 42.7998 0
316 2 26.2273 8.80235 0
317 1 53.0609 3.1955 0
318 2 2.01104 37.4266 0
319 1 34.8541 19.2768 0
320 1 21.3865 76.3338 0
321 1 57.1826 75.4743 0
322 2 5.22732 77.0478 0
323 2 17.2382 1.19517 0
324 1 70.889 45.4199 0
325 1 52.2602 17.0372 0
326 1 70.6992 55.8994 0
327 1 48.7679 38.6453 0
328 1 13.3449 26.9776 0
329 1 54.7476 14.8185 0
330 2 57.9412 39.6302 0
331 2 57.9722 68.2116 0
332 1 62.8623 33.2234 0
333 1 43.6981 11.015 0
334 1 26.9195 34.2277 0
335 1 22.7642 29.3233 0
336 2 76.0094 3.28317 0
337 1 41.3462 22.8044 0
338 2 10.2637 64.5476 0
339 1 35.5266 72.5519 0
340 1 22.4807 47.8305 0
341 2 16.1313 38.3865 0
342 1 68.7521 77.3529 0
343 2 66.5148 66.0474 0
344 2 19.1209 45.8847 0
345 1 22.6738 20.0297 0
346 1 27.1181 16.7657 0
347 1 34.9332 53.0045 0
348 1 38.2758 11.3408 0
349 1 36.2577 21.5301 0
350 1 46.3718 23.4614 0
351 1 19.9954 55.1469 0
352 1 47.3951 30.6418 0
353 1 2.3905 21.92 0
354 2 39.527 44.396 0
355 2 64.3365 31.3037 0
356 2 9.17642 0.240082 0
357 1 49.8092 53.4855 0
358 1 36.5842 15.2831 0
359 1 36.1208 13.5067 0
360 2 52.2691 34.4451 0
361 2 55.6923 50.2814 0
362 1 19.4058 70.2421 0
363 2 30.4805 6.51737 0
364 1 20.5449 0.501973 0
365 2 66.0321 61.3244 0
366 1 26.625 54.4968 0
367 2 29.8379 28.6384 0
368 2 33.4265 45.5085 0
369 2 59.7045 60.4624 0
370 1 13.8802 24.7028 0
371 1 37.3939 65.9432 0
372 2 38.0085 3.95568 0
373 1 12.2073 33.6115 0
374 2 45.795 33.4978 0
375 1 58.2562 43.7942 0
376 2 68.2649 38.7152 0
377 2 53.3675 47.5444 0
378 1 7.54078 1.01684 0
379 1 18.7872 22.5228 0
380 1 13.7856 46.051 0
381 1 21.6535 19.8857 0
382 1 19.2631 39.4 0
383 1 24.3516 12.6376 0
384 1 34.3309 56.8306 0
385 1 40.0023 10.6052 0
386 1 57.3539 39.0519 0
387 1 64.7592 71.5616 0
388 2 63.0987 46.8619 0
389 1 35.9217 53.2975 0
390 1 37.0508 28.7179 0
391 2 73.8796 11.0924 0
392 2 32.3655 16.4088 0
393 2 34.2203 66.6115 0
394 1 73.6127 70.7881 0
395 1 51.1832 10.0817 0
396 1 4.24944 18.0317 0
397 1 52.8213 24.8771 0
398 1 41.5507 2.33527 0
399 1 58.3801 27.3062 0
400 1 49.5564 77.3003 0
401 1 60.6125 1.88835 0
402 2 67.7961 75.5306 0
403 1 33.858 52.6099 0
404 1 60.9179 61.5531 0
405 2 65.3619 48.4245 0
406 1 26.7667 22.135 0
407 2 63.788 77.1542 0
408 1 77.2004 25.4832 0
409 1 9.0964 61.5197 0
410 2 4.36377 13.087 0
411 2 67.0967 24.6604 0
412 1 64.4414 45.9972 0
413 1 71.7923 39.5401 0
414 1 2.9788 52.3797 0
415 1 15.6702 41.7287 0
416 2 1.8726 61.4636 0
417 2 71.2596 22.4206 0
418 1 47.4262 23.4801 0
419 2 59.0091 43.2921 0
420 2 14.4397 64.6521 0
421 1 64.0021 22.7536 0
422 1 73.5647 73.1784 0
423 1 10.1816 4.73708 0
424 1 60.6181 10.3629 0
425 1 51.7496 56.1374 0
426 1 58.3947 73.4296 0
427 2 34.4672 10.1747 0
428 1 48.9622 69.5224 0
429 1 58.5553 68.8194 0
430 1 29.2767 36.7186 0
431 1 11.7219 8.57909 0
432 1 59.9478 56.5336 0
433 1 28.5199 3.957 0
434 1 68.8897 25.3062 0
435 1 60.6724 39.6342 0
436 2 60.7655 43.7351 0
437 2 48.2836 42.8822 0
438 1 43.9461 51.3118 0
439 2 62.4301 0.252444 0
440 1 41.2444 48.9359 0
441 2 0.673888 8.28398 0
442 1 17.2096 29.4393 0
443 1 57.6672 15.5669 0
444 1 65.448 76.4959 0
445 2 48.2131 57.2765 0
446 1 66.659 51.8273 0
447 1 14.3027 75.6775 0
448 1 56.6103 41.1557 0
449 1 36.5918 68.4868 0
450 2 43.0717 51.5139 0
451 2 11.8239 46.1573 0
452 1 44.9358 17.2029 0
453 1 31.008 7.84119 0
454 2 66.8276 32.776 0
455 2 27.2951 3.02454 0
456 1 9.99438 45.9803 0
457 2 32.2183 6.54742 0
458 1 31.9838 7.30025 0
459 2 15.3207 52.985 0
460 1 77.33 7.93618 0
461 2 33.9354 37.217 0
462 1 66.8002 9.56356 0
463 1 66.3704 72.5183 0
464 1 4.30002 48.4547 0
465 2 28.3094 33.2438 0
466 1 17.1474 20.3223 0
467 2 3.93626 8.32462 0
468 1 19.2243 33.9206 0
469 1 5.99618 67.0829 0
470 1 3.24324 70.4995 0
471 2 71.0762 44.5278 0
472 1 20.3213 40.1927 0
473 1 53.6595 70.0453 0
474 1 34.7106 70.0461 0
475 1 25.8635 77.1185 0
476 2 48.9937 19.2387 0
477 1 59.2143 20.3573 0
478 2 16.488 56.3597 0
479 1 27.6539 23.6775 0
480 1 30.2326 23.267 0
481 1 13.2489 14.5363 0
482 1 12.8735 18.2965 0
483 2 73.4841 8.68266 0
484 1 15.8631 45.6196 0
485 1 16.4327 46.4822 0
486 1 15.3259 1.1946 0
487 2 48.7153 66.516 0
488 1 40.5092 3.76137 0
489 1 50.9719 4.9638 0
490 1 32.0449 23.0731 0
491 1 26.9696 36.4462 0
492 2 68.6677 61.743 0
493 1 71.4736 11.5073 0
494 1 73.6978 26.1924 0
495 2 23.7004 66.9243 0
496 2 42.1934 37.0939 0
497 2 41.9573 15.7007 0
498 1 25.02 32.2409 0
499 1 28.8043 76.3812 0
500 1 77.225 70.9151 0
501 2 32.8051 56.0689 0
502 1 23.262 54.9019 0
503 1 60.6587 13.4985 0
504 1 31.4737 38.3593 0
505 2 21.7945 10.56 0
506 2 15.3042 75.5155 0
507 1 40.5414 23.4641 0
508 1 10.738 52.0387 0
509 1 31.7986 24.1051 0
510 1 57.9695 38.1493 0
511 1 59.9153 23.8849 0
512 1 51.7003 69.9666 0
513 1 21.6178 37.2896 0
514 1 21.2245 64.1232 0
515 2 52.5435 77.407 0
516 2 1.9016 44.4524 0
517 2 2.49232 47.0863 0
518 2 30.9461 44.4891 0
519 2 32.1204 71.8582 0
520 1 71.4316 35.6007 0
521 1 54.4359 22.2003 0
522 2 20.398 72.4914 0
523 1 0.927766 67.4201 0
524 1 59.798 25.9796 0
525 1 33.1683 4.73603 0
526 2 12.6718 27.5997 0
527 1 53.3944 26.882 0
528 2 65.5519 62.7332 0
529 2 47.511 63.1713 0
530 1 7.20777 59.3055 0
531 2 65.2069 58.8283 0
532 2 15.3408 63.5746 0
533 1 75.2363 65.7649 0
534 1 20.8231 36.5443 0
535 1 17.2517 9.11803 0
536 1 16.2336 73.079 0
537 1 17.5065 50.1256 0
538 2 16.8668 28.6613 0
539 2 31.7915 75.1867 0
540 1 62.615 42.5187 0
541 2 27.2586 13.9368 0
542 1 51.5806 55.0577 0
543 2 73.053 56.465 0
544 2 55.4222 4.56765 0
545 1 32.3238 34.5438 0
546 1 54.8581 2.069 0
547 1 13.0223 7.50361 0
548 2 22.0035 3.51243 0
549 2 75.2972 25.7945 0
550 2 76.742 44.2604 0
551 1 48.1944 6.39099 0
552 2 61.3619 24.9241 0
553 2 11.7521 34.4646 0
554 1 62.9245 66.2472 0
555 1 50.9371 46.7405 0
556 1 73.2576 74.1959 0
557 1 52.5307 46.1199 0
558 1 63.0207 54.8569 0
559 1 77.4196 20.2061 0
560 2 12.9918 51.0868 0
561 1 70.0479 75.6851 0
562 2 4.2636 9.67035 0
563 2 35.7292 55.2978 0
564 1 58.8519 52.1013 0
565 2 20.1977 75.1415 0
566 2 8.5738 19.0389 0
567 1 57.0923 40.1507 0
568 2 41.2699 69.055 0
569 2 17.2691 17.9466 0
570 1 63.9687 46.9483 0
571 1 76.8816 71.937 0
572 2 4.50847 61.4103 0
573 2 70.8146 24.3315 0
574 1 76.1279 57.3349 0
575 1 38.6617 9.50579 0
576 1 19.3407 59.1688 0
577 1 35.0882 45.8763 0
578 2 57.1007 46.9027 0
579 2 44.2885 67.525 0
580 1 44.0312 30.0563 0
581 1 62.847 63.0352 0
582 2 69.5146 71.8737 0
583 2 55.3203 47.6626 0
584 2 21.502 49.8525 0
585 1 50.3717 2.15344 0
586 1 55.7087 42.9384 0
587 2 22.0943 20.6068 0
588 1 54.1688 73.6788 0
589 2 59.0687 7.40071 0
590 1 26.5178 1.21354 0
591 1 53.27 25.799 0
592 1 58.5546 77.0943 0
593 1 55.5363 75.1369 0
594 1 63.1182 52.1008 0
595 1 0.248701 62.7638 0
596 2 2.40795 3.35928 0
597 1 6.78115 48.0966 0
598 1 68.9832 3.38483 0
599 1 9.78533 43.4403 0
600 1 6.31997 45.4771 0
601 2 36.5848 48.4562 0
602 1 65.7275 6.46369 0
603 2 12.4682 48.3637 0
604 2 69.0686 19.941 0
605 1 53.081 53.9435 0
606 1 39.1271 74.2913 0
607 1 75.8303 73.3623 0
608 2 73.3368 47.8246 0
609 2 44.2112 76.3937 0
610 1 7.34532 42.9207 0
611 1 55.134 46.7691 0
612 1 55.5647 62.3552 0
613 1 2.30552 26.3523 0
614 2 48.0319 27.0273 0
615 1 18.1246 31.9904 0
616 1 46.1824 15.4041 0
617 1 56.5955 3.33551 0
618 2 8.91633 38.3755 0
619 2 37.1262 52.0319 0
620 2 68.9377 58.1966 0
621 2 69.8418 34.3683 0
622 1 0.78329 9.23745 0
623 1 37.9242 10.2181 0
624 2 16.1752 64.7529 0
625 1 5.7679 2.13582 0
626 1 9.21836 20.7678 0
627 2 1.93679 21.1799 0
628 1 15.3098 52.1225 0
629 2 65.2699 16.4284 0
630 1 40.1256 74.5641 0
631 1 66.8941 34.732 0
632 1 21.0112 8.71285 0
633 2 17.6035 77.2248 0
634 1 18.544 67.705 0
635 2 36.0464 51.015 0
636 2 47.2158 29.7098 0
637 1 7.82947 10.2028 0
638 1 71.6463 48.8849 0
639 1 0.00526981 50.8197 0
640 1 9.75524 56.0097 0
641 1 24.1779 31.6256 0
642 1 18.1696 34.7479 0
643 1 22.5582 46.7722 0
644 2 8.06061 22.3084 0
645 1 48.3842 45.2947 0
646 1 42.8445 40.4862 0
647 2 38.0433 23.5425 0
648 1 73.1439 0.971317 0
649 2 6.88824 69.7467 0
650 2 45.2216 66.2899 0
651 1 63.3038 19.9336 0
652 1 20.3538 76.1494 0
653 2 18.8798 17.4431 0
654 2 26.7743 7.1849 0
655 1 19.9439 51.5791 0
656 1 66.2507 57.1551 0
657 1 27.0764 46.6068 0
658 1 3.06483 5.85593 0
659 2 64.8586 57.4347 0
660 1 38.4818 22.7717 0
661 1 41.9888 18.8945 0
662 1 14.6267 37.5046 0
663 1 3.06294 47.7938 0
664 1 48.8996 0.699468 0
665 2 49.6879 0.707152 0
666 2 11.5801 32.9116 0
667 1 10.4472 76.7903 0
668 2 71.2152 71.6087 0
669 1 4.93692 12.5574 0
670 2 29.3348 62.6283 0
671 2 49.0033 8.91832 0
672 1 17.8337 18.6013 0
673 1 19.7046 23.1554 0
674 1 31.7479 46.0673 0
675 2 2.66246 67.7289 0
676 2 35.9465 69.0745 0
677 1 39.3986 64.1341 0
678 1 38.7516 46.2504 0
679 1 37.1905 73.1339 0
680 1 26.5762 57.933 0
681 1 15.7002 47.2657 0
682 1 0.67711 52.4248 0
683 1 20.8054 4.93899 0
684 1 59.9117 57.5233 0
685 2 54.4106 12.3644 0
686 1 67.3737 73.3086 0
687 1 34.6351 12.8407 0
688 2 47.8338 59.3178 0
689 1 4.0587 55.4257 0
690 1 57.8185 57.8857 0
691 1 69.2501 29.9883 0
692 2 45.9282 36.2407 0
693 1 67.8194 6.8992 0
694 2 47.648 67.8258 0
695 1 69.2193 10.2793 0
696 2 25.9087 55.0162 0
697 1 23.8508 32.839 0
698 1 11.4068 69.0658 0
699 1 63.4197 39.8861 0
700 1 1.54391 32.4364 0
701 1 68.5105 54.8075 0
702 1 47.0232 52.079 0
703 2 75.7 67.5254 0
704 2 73.4934 65.7259 0
705 2 17.4791 8.30902 0
706 1 60.9183 40.6759 0
707 2 58.481 20.7853 0
708 1 42.7392 48.1426 0
709 1 57.9552 5.49981 0
710 2 63.1745 21.0007 0
711 1 56.2784 60.6773 0
712 2 49.5664 20.5785 0
713 2 56.5533 73.7278 0
714 2 69.2603 47.204 0
715 1 53.4952 12.0529 0
716 1 76.6003 16.414 0
717 1 16.0758 67.2836 0
718 1 2.23696 62.2782 0
719 1 49.2889 28.1673 0
720 2 26.1798 46.5276 0
721 2 66.7746 41.1413 0
722 1 46.5806 4.91031 0
723 2 56.9009 16.0921 0
724 2 29.2131 7.12477 0
725 1 70.4074 22.2817 0
726 1 19.0211 28.6463 0
727 2 28.65 22.2712 0
728 1 71.108 53.2034 0
729 2 25.2906 4.96125 0
730 1 19.2577 24.126 0
731 2 28.7469 29.89 0
732 1 21.6355 57.6055 0
733 1 41.2833 25.4381 0
734 2 63.782 44.4404 0
735 1 54.2046 70.9107 0
736 1 32.9004 42.7665 0
737 2 0.506228 36.3023 0
738 1 25.5255 27.4176 0
739 1 37.9377 25.5039 0
740 1 38.8953 49.0179 0
741 2 43.1668 33.302 0
742 1 63.3597 46.1033 0
743 1 25.8335 73.071 0
744 2 8.73162 32.3487 0
745 1 9.4088 64.2818 0
746 1 31.1696 11.9131 0
747 1 27.5467 69.3497 0
748 2 45.0806 53.6306 0
749 2 22.2016 27.5771 0
750 1 50.5671 26.4915 0
751 1 61.8757 48.8821 0
752 2 62.2465 63.7448 0
753 1 42.1708 23.5531 0
754 2 9.60002 23.2085 0
755 1 10.1397 41.2678 0
756 2 48.603 70.363 0
757 1 49.5128 13.7132 0
758 1 1.48255 8.38422 0
759 1 34.1549 45.1018 0
760 1 77.3202 14.8275 0
761 1 3.09583 71.5027 0
762 1 11.9406 65.5058 0
763 2 70.3774 14.8627 0
764 1 12.7613 61.2776 0
765 2 61.217 59.9176 0
766 1 4.41366 10.8696 0
767 1 2.47809 69.7455 0
768 1 74.8864 6.9726 0
769 1 62.5917 36.2882 0
770 2 54.7864 62.7823 0
771 1 7.43379 34.5413 0
772 1 51.0405 32.8406 0
773 1 41.4912 46.7722 0
774 2 39.6322 34.7535 0
775 1 69.1603 27.4266 0
776 2 34.8154 48.6166 0
777 1 6.40592 40.9943 0
778 2 74.4185 63.4499 0
779 1 53.0183 7.92754 0
780 1 23.7027 11.4292 0
781 1 39.0198 27.1805 0
782 1 57.9752 47.4545 0
783 1 45.8057 31.2253 0
784 1 63.8432 50.7603 0
785 2 76.5389 14.5403 0
786 1 57.2563 57.0849 0
787 1 21.0796 62.9721 0
788 1 43.9523 53.6573 0
789 1 76.215 69.3011 0
790 1 53.5477 64.1759 0
791 1 75.9448 5.61204 0
792 1 1.9198 41.8098 0
793 1 18.568 16.6087 0
794 2 19.6037 2.26474 0
795 2 12.765 5.08885 0
796 2 65.0786 0.361827 0
797 1 54.3717 38.646 0
798 1 41.7182 26.3906 0
799 1 24.4886 76.4622 0
800 1 17.7276 72.4762 0
801 2 16.7072 27.0415 0
802 2 1.85941 40.1177 0
803 2 24.3253 10.8157 0
804 2 42.3989 39.7329 0
805 1 28.2069 8.59573 0
806 1 57.4598 68.8453 0
807 2 21.3962 0.787622 0
808 1 39.5872 50.3096 0
809 2 14.3423 48.5504 0
810 1 72.7761 2.30009 0
811 1 42.7256 75.0847 0
812 2 0.224781 58.4881 0
813 2 52.3993 41.5405 0
814 1 67.2468 30.654 0
815 2 42.5318 17.3399 0
816 1 25.4743 60.3397 0
817 1 62.4153 3.72985 0
818 2 53.2648 9.87604 0
819 2 48.4344 47.764 0
820 1 52.3177 72.489 0
821 1 22.1934 0.489934 0
822 1 57.9385 1.76125 0
823 1 6.6919 65.1749 0
824 2 28.4452 31.1969 0
825 1 33.6011 31.1845 0
826 1 35.5231 11.4473 0
827 1 12.2838 40.0093 0
828 1 2.07809 46.3475 0
829 1 68.8551 26.3943 0
830 2 43.7988 77.2822 0
831 2 55.8709 0.148878 0
832 1 64.5586 16.9289 0
833 1 26.7112 66.9488 0
834 2 47.6797 12.4117 0
835 1 46.5216 3.33728 0
836 1 7.98884 6.5946 0
837 1 56.7989 32.151 0
838 1 47.1319 54.1937 0
839 1 11.4173 63.8739 0
840 2 8.05756 52.92 0
841 1 27.4384 64.9869 0
842 2 22.4944 57.7089 0
843 1 9.11066 50.7873 0
844 1 71.9692 23.0193 0
845 2 38.5805 7.87704 0
846 1 48.1306 46.9283 0
847 1 1.51484 51.7348 0
848 2 62.7236 58.5886 0
849 1 73.1102 14.7632 0
850 1 76.6918 29.5433 0
851 1 33.1532 24.306 0
852 1 2.69551 2.46062 0
853 1 37.8002 69.5171 0
854 1 36.0973 3.42035 0
855 1 50.3243 25.4856 0
856 2 27.86 25.5415 0
857 1 67.0938 13.3013 0
858 2 29.5503 44.2086 0
859 1 12.4661 5.94363 0
860 2 61.3662 49.5606 0
861 2 72.1868 51.3812 0
862 2 12.3212 60.4456 0
863 1 53.6229 14.8318 0
864 1 61.23 51.8899 0
865 2 69.5558 65.2211 0
866 1 68.4623 14.8282 0
867 2 33.9992 23.9316 0
868 1 49.8758 56.4164 0
869 1 76.2244 32.4574 0
870 1 19.77 48.0771 0
871 1 76.6167 24.628 0
872 1 31.2848 34.3824 0
873 1 46.0106 2.06242 0
874 1 72.9654 67.5959 0
875 1 37.1187 57.0622 0
876 2 48.4288 3.35482 0
877 1 4.02521 52.078 0
878 2 23.5348 28.7616 0
879 1 68.3306 20.4532 0
880 2 39.0955 39.8807 0
881 2 57.7885 28.0294 0
882 2 48.9435 62.1948 0
883 1 33.7305 19.5799 0
884 1 58.0633 33.7371 0
885 1 45.3384 74.84 0
886 1 46.2362 48.3137 0
887 2 33.0875 49.1225 0
888 1 3.97793 2.17677 0
889 2 49.8787 28.8473 0
890 2 3.43673 17.8614 0
891 1 30.2921 12.5512 0
892 1 34.4539 75.9711 0
893 1 13.5067 50.3478 0
894 1 7.98568 11.9148 0
895 2 38.9139 47.0956 0
896 1 23.7296 72.3141 0
897 2 53.1032 19.7943 0
898 1 24.1038 51.9878 0
899 1 61.4372 72.9292 0
900 2 51.2688 15.3417 0
901 1 30.0751 46.4626 0
902 1 44.4569 8.68499 0
903 1 21.1805 44.5772 0
904 2 8.29492 23.6643 0
905 1 50.9759 50.4615 0
906 1 67.2777 50.2909 0
907 1 9.51135 19.0729 0
908 1 67.9153 24.8691 0
909 1 75.2416 63.9133 0
910 2 8.19679 60.8395 0
911 2 7.08614 68.7303 0
912 2 38.3063 30.2876 0
913 2 28.1982 39.9975 0
914 1 6.09599 14.9731 0
915 2 59.2778 4.04263 0
916 1 8.33791 42.4867 0
917 2 2.93861 12.0955 0
918 2 24.1253 41.6419 0
919 1 24.426 60.1308 0
920 1 21.4558 55.5252 0
921 1 70.8165 37.6989 0
922 2 49.3525 22.2587 0
923 2 6.01369 18.0153 0
924 1 54.0845 13.1722 0
925 1 67.4753 42.7306 0
926 2 39.6792 32.8674 0
927 1 54.6581 58.5917 0
928 1 43.7375 70.1944 0
929 2 66.737 47.429 0
930 2 21.0869 22.0062 0
931 1 47.7306 44.4537 0
932 1 61.9363 33.6901 0
933 1 32.7713 25.9907 0
934 1 8.48104 70.0841 0
935 1 11.1114 50.9074 0
936 2 53.3765 71.2071 0
937 1 8.25837 0.0302515 0
938 1 30.0075 0.62824 0
939 2 46.602 30.9691 0
940 1 76.5059 50.0951 0
941 1 8.4812 11.027 0
942 1 45.148 10.8188 0
943 2 14.4825 4.41777 0
944 2 8.94356 45.3169 0
945 1 40.5045 29.4542 0
946 1 71.0765 65.0195 0
947 2 26.4542 0.311802 0
948 1 28.3901 68.5756 0
949 1 38.3137 17.1945 0
950 2 1.7642 74.7345 0
951 1 76.8759 58.9686 0
952 2 53.4649 11.1713 0
953 2 5.70895 36.1483 0
954 2 15.7698 50.5981 0
955 1 23.2661 41.5469 0
956 2 72.1034 24.914 0
957 1 56.2612 21.4421 0
958 2 21.7903 9.04605 0
959 2 0.246949 45.3704 0
960 2 45.1426 73.0891 0
961 1 52.8963 40.7507 0
962 1 28.5217 20.2105 0
963 1 22.6359 13.2747 0
964 2 21.7802 12.9759 0
965 2 54.3163 49.1613 0
966 1 68.1759 56.5034 0
967 1 58.9222 34.5276 0
968 1 23.436 71.3334 0
969 1 55.029 9.17824 0
970 2 37.7156 9.31072 0
971 1 14.2514 21.9329 0
972 1 6.64887 42.1398 0
973 1 58.3998 42.6268 0
974 2 62.5844 39.8892 0
975 2 72.0888 62.5747 0
976 2 30.1655 18.5927 0
977 1 37.7081 46.5038 0
978 2 72.9115 5.41353 0
979 2 40.1083 66.566 0
980 1 0.739243 73.0286 0
981 1 60.7813 58.086 0
982 1 14.461 67.8871 0
983 1 26.4472 18.3967 0
984 1 12.869 58.5828 0
985 1 53.1965 8.98335 0
986 1 29.2749 55.0407 0
987 2 15.5949 31.041 0
988 2 40.9873 37.6671 0
989 2 0.701744 32.6001 0
990 2 75.5018 54.588 0
991 2 57.4765 14.6753 0
992 1 70.5135 34.9807 0
993 2 40.4201 22.6455 0
994 2 17.8341 56.7422 0
995 1 21.3672 35.5394 0
996 2 47.2468 64.4755 0
997 2 49.3745 23.8427 0
998 2 56.5723 71.7586 0
999 2 48.2261 17.5021 0
1000 2 4.90778 55.2884 0
1001 1 35.1124 2.94 0
1002 1 31.9132 50.8865 0
1003 1 16.2125 51.3567 0
1004 1 77.1303 13.6914 0
1005 2 4.11673 22.653 0
1006 2 58.7853 39.8551 0
1007 1 11.1927 24.8651 0
1008 1 51.407 27.5911 0
1009 1 30.234 32.8685 0
1010 1 15.0908 53.8303 0
1011 2 15.8774 42.6994 0
1012 2 4.39549 18.9144 0
1013 2 50.9213 56.5378 0
1014 1 5.27495 11.4702 0
1015 1 73.7083 21.9393 0
1016 1 53.4547 36.392 0
1017 2 14.9846 39.7171 0
1018 1 32.3872 49.7062 0
1019 1 49.7557 27.1899 0
1020 2 46.5919 17.7576 0
1021 2 22.5474 22.727 0
1022 1 13.3432 57.6278 0
1023 1 51.4906 3.39027 0
1024 1 14.1945 11.6089 0
1025 1 44.9886 72.1762 0
1026 1 12.111 44.3078 0
1027 1 46.6603 73.6507 0
1028 1 14.0183 42.0463 0
1029 1 49.1546 11.4647 0
1030 2 50.5985 36.213 0
1031 2 43.8147 37.7825 0
1032 1 9.02671 69.1812 0
1033 1 62.6733 29.538 0
1034 1 62.2179 24.7943 0
1035 1 75.4913 27.4466 0
1036 2 65.8167 54.1913 0
1037 1 41.0939 69.8999 0
1038 1 64.9728 66.5843 0
1039 1 3.83245 27.9853 0
1040 2 69.9167 37.8659 0
1041 1 29.2245 65.5776 0
1042 2 59.7533 53.8593 0
1043 2 57.8951 61.3144 0
1044 1 68.8637 16.525 0
1045 1 7.16988 29.6075 0
1046 1 41.1527 66.8761 0
1047 2 15.8564 48.0709 0
1048 1 50.5939 0.0688769 0
1049 1 3.66412 45.5828 0
1050 2 52.5953 26.4302 0
1051 1 51.9493 21.3227 0
1052 1 69.2403 37.301 0
1053 2 35.7411 24.1765 0
1054 1 62.3462 72.3065 0
1055 2 19.6802 53.4437 0
1056 2 27.1552 43.031 0
1057 1 17.9509 4.23278 0
1058 1 40.1786 5.44843 0
1059 1 7.49979 72.4551 0
1060 2 21.2252 33.9167 0
1061 1 21.0982 15.5909 0
1062 2 16.7782 33.5582 0
1063 1 76.8276 5.01985 0
1064 1 21.3175 3.00173 0
1065 2 37.4958 41.9462 0
1066 1 34.9889 57.6498 0
1067 1 13.3151 17.3717 0
1068 2 37.9782 75.7217 0
1069 1 0.221926 27.352 0
1070 2 14.7096 24.8678 0
1071 2 69.2518 46.2365 0
1072 2 76.3844 71.2511 0
1073 2 5.81021 4.73464 0
1074 2 20.4091 52.3154 0
1075 1 3.82132 42.3958 0
1076 1 25.0727 7.34332 0
1077 1 36.7247 18.284 0
1078 2 69.6572 26.7121 0
1079 2 46.1796 13.4699 0
1080 2 28.9377 60.991 0
1081 2 40.5823 55.176 0
1082 2 8.86339 11.8408 0
1083 2 31.2175 12.7537 0
1084 1 47.1913 36.6011 0
1085 1 20.0289 46.4178 0
1086 1 48.4042 51.046 0
1087 1 44.4073 66.6369 0
1088 1 47.1935 59.8941 0
1089 2 66.8331 31.4916 0
1090 1 39.341 15.1889 0
1091 2 47.1209 10.9629 0
1092 1 48.7254 59.4152 0
1093 1 1.90995 23.7086 0
1094 2 38.7429 63.5843 0
1095 1 21.7424 11.4901 0
1096 2 53.3821 29.5158 0
1097 1 77.2428 23.7277 0
1098 1 56.6712 37.0342 0
1099 1 27.2078 66.0153 0
1100 1 74.0032 62.5485 0
1101 1 73.8723 20.0421 0
1102 1 34.8434 15.9543 0
1103 1 48.163 5.29315 0
1104 1 46.2327 39.0758 0
1105 1 55.9414 32.7773 0
1106 1 11.3407 1.27908 0
1107 2 41.8895 70.2514 0
1108 1 50.4078 31.4762 0
1109 1 69.192 18.0753 0
1110 2 72.6466 15.6345 0
1111 1 65.296 56.6828 0
1112 1 18.1825 5.31478 0
1113 2 4.99614 2.45037 0
1114 2 23.4962 43.324 0
1115 2 22.6766 59.1319 0
1116 1 70.3998 62.3148 0
1117 1 64.7301 55.0318 0
1118 1 14.8828 0.0099737 0
1119 2 19.4707 54.4974 0
1120 1 37.709 60.2443 0
1121 2 17.9446 2.35342 0
1122 1 42.5359 36.3416 0
1123 2 32.6864 41.7486 0
1124 1 49.1948 44.5965 0
1125 2 30.4184 9.67568 0
1126 2 16.2658 18.0595 0
1127 1 18.1944 10.6009 0
1128 1 59.1978 65.5028 0
1129 1 59.3259 46.9198 0
1130 1 23.1447 67.5409 0
1131 1 74.3031 16.4848 0
1132 2 66.6817 55.3927 0
1133 2 50.0864 5.09096 0
1134 2 8.25979 1.61314 0
1135 1 58.8447 61.0887 0
1136 2 56.4164 27.5663 0
1137 1 44.7303 58.4776 0
1138 1 37.4077 22.9865 0
1139 2 42.2891 44.8323 0
1140 2 9.64997 19.985 0
1141 1 64.1005 57.0514 0
1142 1 48.4872 32.4824 0
1143 1 63.3941 56.1536 0
1144 2 1.80537 75.707 0
1145 1 20.6284 50.0872 0
1146 1 12.669 4.23761 0
1147 1 32.6767 27.0018 0
1148 1 12.6365 22.4878 0
1149 1 67.026 25.5489 0
1150 2 61.0384 45.0979 0
1151 1 58.2329 19.7543 0
1152 1 42.4056 38.821 0
1153 1 5.12785 18.5232 0
1154 1 11.5323 14.5975 0
1155 2 66.9946 8.64515 0
1156 1 65.6188 23.1661 0
1157 1 19.5808 16.9049 0
1158 2 63.4698 60.8907 0
1159 2 63.263 70.251 0
1160 1 32.4292 5.72458 0
1161 2 40.8867 74.1931 0
1162 1 4.5224 0.603045 0
1163 2 3.20932 1.68737 0
1164 1 37.4668 67.7885 0
1165 1 21.5415 40.1942 0
1166 2 29.6618 38.7619 0
1167 1 32.6656 21.7521 0
1168 1 43.6066 74.5828 0
1169 1 15.3632 4.52577 0
1170 2 4.72859 33.6059 0
1171 1 59.6213 39.4996 0
1172 1 36.0861 8.26372 0
1173 1 45.8102 56.1821 0
1174 1 42.6633 42.9632 0
1175 2 54.6091 50.3089 0
1176 1 73.2378 33.228 0
1177 1 44.4354 60.0971 0
1178 2 44.8883 33.5295 0
1179 1 69.9786 28.9836 0
1180 1 54.883 13.8028 0
1181 1 51.5965 39.4307 0
1182 1 52.164 0.868551 0
1183 2 45.3435 57.794 0
1184 2 30.8584 27.3783 0
1185 1 7.55774 57.2546 0
1186 1 40.7335 54.3852 0
1187 1 50.1973 64.9694 0
1188 2 9.43359 44.2413 0
1189 1 56.8711 53.4007 0
1190 1 40.4587 44.2553 0
1191 2 61.4982 18.8502 0
1192 1 21.5863 47.0299 0
1193 1 37.5779 30.688 0
1194 2 15.978 22.6291 0
1195 1 75.3845 58.0323 0
1196 1 21.7202 59.4431 0
1197 1 41.5401 34.4764 0
1198 1 64.8354 2.45541 0
1199 2 52.5682 54.7271 0
1200 1 41.4975 11.3608 0
1201 1 68.4346 67.8245 0
1202 1 10.3029 62.6681 0
1203 2 46.4131 16.2483 0
1204 1 64.6293 65.5143 0
1205 1 72.1276 60.1794 0
1206 1 60.6399 4.89701 0
1207 1 45.6065 52.9052 0
1208 1 75.8348 45.5251 0
1209 2 49.8319 60.0372 0
1210 1 60.3739 29.1564 0
1211 2 17.7744 60.3044 0
1212 1 19.7192 35.1915 0
1213 1 56.1576 57.7582 0
1214 1 4.79047 27.5277 0
1215 1 9.79376 1.29875 0
1216 1 8.41319 71.8182 0
1217 2 51.8555 58.1073 0
1218 2 61.8476 7.12801 0
1219 1 31.1644 22.5461 0
1220 1 56.942 11.0181 0
1221 1 53.9563 59.5318 0
1222 2 68.3896 63.2614 0
1223 1 50.6811 42.0282 0
1224 1 0.107427 30.1027 0
1225 1 2.93996 23.5959 0
1226 2 59.7355 47.6412 0
1227 1 28.4235 63.1222 0
1228 1 51.5035 59.1018 0
1229 2 54.9911 1.19146 0
1230 1 10.1942 34.0221 0
1231 2 54.1373 16.6876 0
1232 1 70.7562 48.3031 0
1233 1 22.1885 58.4521 0
1234 1 61.8795 67.6432 0
1235 1 17.0972 51.8118 0
1236 1 46.8133 63.7389 0
1237 1 37.2642 21.1354 0
1238 1 33.0888 6.78939 0
1239 1 10.2659 20.6316 0
1240 1 42.1519 76.3146 0