ITEM: TIMESTEP
0
ITEM: NUMBER OF ATOMS
7200
ITEM: BOX BOUNDS xy xz yz pp pp pp
0.0000000000000000e+00 7.7459666924100006e+01 0.0000000000000000e+00
0.0000000000000000e+00 7.7459666924100006e+01 0.0000000000000000e+00
-1.2909944490000000e-01 1.2909944490000000e-01 0.0000000000000000e+00
ITEM: ATOMS id type x y z
1 1 12.2245 19.939 0
2 1 15.1193 63.9698 0
3 1 75.4499 71.3572 0
4 1 20.6455 7.87183 0
5 1 34.5594 55.9667 0
6 1 56.7771 28.6897 0
7 2 5.47549 3.40694 0
8 2 64.7345 46.425 0
9 1 42.7095 55.8989 0
10 2 19.2157 14.5891 0
11 2 25.4444 53.1709 0
12 1 55.1334 11.5476 0
13 2 23.4252 5.63019 0
14 1 46.6233 70.1446 0
15 1 39.2143 31.3021 0
16 1 18.3427 14.8441 0
17 1 31.3445 40.0012 0
18 1 33.9291 5.83358 0
19 1 27.0158 57.6785 0
20 2 44.7929 3.71404 0
21 1 12.5796 65.8859 0
22 1 54.3312 10.883 0
23 1 75.4942 45.8465 0
24 1 55.8811 66.3925 0
25 1 6.4636 71.2154 0
26 1 21.2719 67.5648 0
27 2 28.9858 63.6017 0
28 1 50.8871 74.0236 0
29 2 22.4193 47.9513 0
30 2 24.2088 31.4627 0
31 1 15.4998 53.8085 0
32 1 50.9588 38.0869 0
33 1 60.7193 48.4095 0
34 2 45.3215 9.74828 0
35 1 75.3065 63.3395 0
36 1 30.5806 59.9367 0
37 1 22.2723 61.4825 0
38 1 45.9255 19.9526 0
39 1 22.6443 5.3815 0
40 2 24.8182 59.0829 0
41 2 18.5807 64.5641 0
42 1 21.1499 0.915065 0
43 1 18.5652 33.408 0
44 1 34.34 62.5461 0
45 1 3.20724 34.5769 0
46 1 68.1721 7.38955 0
47 1 73.4755 59.2727 0
48 1 44.1403 68.1892 0
49 2 77.262 4.39424 0
50 1 31.0691 66.4879 0
51 1 1.31502 10.0944 0
52 2 33.0565 24.4025 0
53 1 53.4915 18.7828 0
54 1 49.6047 30.4132 0
55 1 9.8733 1.0607 0
56 1 45.8252 26.1535 0
57 1 67.4239 43.1214 0
58 1 70.1249 69.8502 0
59 1 34.3607 2.09474 0
60 1 28.7919 3.34266 0
61 1 40.4381 75.9206 0
62 1 52.3439 44.9282 0
63 1 57.217 9.95046 0
64 1 50.8231 45.7579 0
65 1 67.1056 73.4472 0
66 2 56.0265 11.5602 0
67 2 40.5931 35.8825 0
68 2 0.753442 29.229 0
69 1 62.0514 45.4073 0
70 1 8.28752 35.4905 0
71 2 7.35998 42.347 0
72 1 76.7288 3.53709 0
73 1 6.39408 64.2132 0
74 2 41.6457 22.8704 0
75 1 75.3993 53.5624 0
76 1 19.6468 46.7413 0
77 1 25.2204 74.445 0
78 1 3.69933 15.7443 0
79 1 12.3359 73.2398 0
80 1 43.5363 16.6584 0
81 1 55.13 62.3109 0
82 2 44.4431 16.7322 0
83 1 5.81328 32.8775 0
84 1 32.8197 45.6634 0
85 1 34.5223 20.846 0
86 2 34.673 64.6525 0
87 1 71.5977 34.7984 0
88 1 18.5256 54.6953 0
89 1 27.8624 14.0361 0
90 1 37.4035 37.8955 0
91 2 45.2765 41.0584 0
92 2 41.5049 56.1648 0
93 1 28.0253 16.6974 0
94 1 33.4639 55.7455 0
95 2 40.3147 56.5147 0
96 1 64.7579 1.30701 0
97 1 44.0716 49.0182 0
98 2 2.76499 60.0366 0
99 1 61.8589 48.108 0
100 2 32.3555 30.9434 0
101 1 47.629 54.5257 0
102 1 56.0874 21.7271 0
103 1 56.5898 70.5492 0
104 1 2.82579 60.9103 0
105 2 40.0318 3.0511 0
106 2 30.4057 34.8574 0
107 1 13.1754 31.3595 0
108 1 0.749312 1.03184 0
109 1 34.4615 41.5067 0
110 2 65.312 26.2719 0
111 1 65.9691 11.7977 0
112 1 33.8112 72.5944 0
113 2 0.264288 60.5103 0
114 2 74.4254 29.5367 0
115 2 30.4331 12.8104 0
116 2 74.5806 53.7804 0
117 1 16.0361 45.8461 0
118 2 46.6705 26.6129 0
119 1 62.4434 0.126444 0
120 2 5.98706 49.9025 0
121 1 6.3432 3.39579 0
122 1 19.5715 33.0023 0
123 2 5.44945 17.8467 0
124 1 46.3271 57.4363 0
125 1 31.5324 27.4706 0
126 1 58.1195 52.1832 0
127 1 4.42351 59.0776 0
128 1 14.4981 23.2995 0
129 1 16.4857 52.1893 0
130 1 7.54712 2.1366 0
131 1 58.9783 24.8031 0
132 2 31.0011 41.6714 0
133 2 52.6418 7.12591 0
134 1 65.7279 50.9726 0
135 1 31.4504 30.5106 0
136 2 54.8079 47.1132 0
137 1 61.8474 56.6812 0
138 2 70.4188 48.0642 0
139 1 68.5732 27.346 0
140 1 3.45478 21.9269 0
141 2 48.2575 63.4744 0
142 1 6.63301 22.5722 0
143 2 40.5756 70.039 0
144 2 47.0682 75.3815 0
145 2 18.4323 52.9129 0
146 1 54.7681 4.3648 0
147 1 9.30109 39.0293 0
148 1 46.1367 53.4984 0
149 2 67.8849 49.2491 0
150 1 32.8035 56.5471 0
151 2 29.7174 13.7338 0
152 1 49.0794 63.1283 0
153 2 17.2855 46.2915 0
154 2 31.5129 72.9074 0
155 1 70.4387 49.0476 0
156 1 43.4874 10.378 0
157 1 48.9777 71.1496 0
158 1 60.2035 69.3679 0
159 2 10.6374 25.9675 0
160 1 38.2225 17.5691 0
161 1 7.51301 63.5719 0
162 2 72.8931 24.466 0
163 1 30.5484 26.9904 0
164 1 60.2401 29.3349 0
165 1 75.6433 27.7735 0
166 1 1.84565 44.9181 0
167 1 39.1836 0.862545 0
168 1 38.3645 72.6585 0
169 1 56.7712 31.0417 0
170 1 58.0379 2.36466 0
171 2 36.8481 60.9881 0
172 2 33.6064 53.8361 0
173 2 43.7097 24.4657 0
174 2 27.3364 55.802 0
175 2 30.6227 26.1362 0
176 1 46.1935 16.4808 0
177 1 19.6458 58.5893 0
178 1 61.9057 61.4822 0
179 1 64.6526 24.8336 0
180 2 33.79 39.6345 0
181 1 45.072 27.7123 0
182 1 61.7275 58.8003 0
183 2 11.8102 37.3797 0
184 1 5.58801 67.7331 0
185 2 67.2057 29.4791 0
186 1 59.0501 35.1677 0
187 1 39.4648 46.4279 0
188 1 57.3999 47.6888 0
189 2 63.8967 53.0883 0
190 1 23.4692 3.8085 0
191 1 71.8902 7.41982 0
192 1 65.6348 10.127 0
193 2 10.7492 41.5851 0
194 2 68.5429 69.1356 0
195 1 11.2598 3.27315 0
196 2 49.4875 55.1246 0
197 2 20.5005 9.68495 0
198 1 13.3686 61.1529 0
199 2 75.8228 66.3277 0
200 1 59.904 27.5301 0
201 2 34.7629 1.31745 0
202 2 74.5333 55.3759 0
203 1 52.3384 65.6711 0
204 1 29.7989 3.72099 0
205 1 56.0603 26.103 0
206 2 35.7117 37.1273 0
207 2 14.1445 9.38944 0
208 1 33.8276 14.0307 0
209 1 12.2548 11.3416 0
210 2 5.45228 20.5472 0
211 1 17.5076 8.1256 0
212 2 25.0193 6.0454 0
213 2 56.0663 28.0572 0
214 1 71.0513 57.9152 0
215 2 66.5748 22.9359 0
216 1 20.7708 73.4898 0
217 1 59.515 34.1991 0
218 2 54.9304 58.5743 0
219 2 67.9285 42.4023 0
220 2 43.0271 63.6986 0
221 1 18.8509 45.3162 0
222 1 44.9773 12.4599 0
223 2 39.2397 67.6508 0
224 2 27.7762 68.603 0
225 1 32.3621 23.7923 0
226 2 66.4275 57.1396 0
227 2 6.03713 16.4326 0
228 1 34.4638 9.36421 0
229 1 71.0177 26.7677 0
230 1 33.1308 74.243 0
231 1 10.5368 34.4156 0
232 1 42.048 13.0326 0
233 1 34.8822 7.70495 0
234 1 76.136 8.41178 0
235 1 60.7499 59.3364 0
236 2 44.7817 70.4748 0
237 1 77.2937 62.3456 0
238 2 9.38669 21.3221 0
239 1 58.609 3.27139 0
240 2 61.648 46.1693 0
241 1 47.4903 66.7283 0
242 1 18.5563 30.2588 0
243 1 7.22276 56.3067 0
244 1 61.2487 64.424 0
245 1 11.0437 30.6542 0
246 1 2.06007 35.5498 0
247 1 65.543 49.8706 0
248 1 12.6121 0.879874 0
249 2 50.3981 41.4079 0
250 1 29.245 9.64572 0
251 2 57.9553 50.2413 0
252 2 65.9965 23.6768 0
253 1 19.8611 17.4626 0
254 1 54.3051 25.1868 0
255 1 65.5661 42.9362 0
256 1 31.444 8.55634 0
257 1 22.1993 57.8223 0
258 1 25.9475 38.6596 0
259 1 55.8653 56.8452 0
260 2 43.9666 53.6392 0
261 2 26.2741 62.4924 0
262 1 23.8014 33.6876 0
263 2 12.4704 34.6389 0
264 2 71.4763 60.1559 0
265 1 76.9105 46.8641 0
266 1 38.0485 44.658 0
267 2 61.6326 24.4897 0
268 2 56.6489 45.7185 0
269 1 48.1573 21.2227 0
270 2 9.02537 47.1848 0
271 2 23.0419 34.1271 0
272 2 20.4517 14.1606 0
273 1 15.1177 65.0615 0
274 1 32.256 49.9655 0
275 1 8.59258 49.0722 0
276 1 75.3278 10.3523 0
277 2 15.5643 71.2827 0
278 1 7.57994 17.4481 0
279 1 4.31378 44.4398 0
280 1 20.0567 35.7388 0
281 1 30.4645 38.5227 0
282 2 76.2212 27.0478 0
283 1 76.5377 55.7901 0
284 2 54.2252 38.5438 0
285 1 71.0963 52.8933 0
286 1 11.5411 63.4169 0
287 1 19.2151 76.7317 0
288 2 75.7852 4.00055 0
289 2 21.215 39.1145 0
290 2 69.1848 76.2594 0
291 1 35.1605 22.6979 0
292 1 27.6858 58.438 0
293 1 47.4458 19.2498 0
294 1 40.2653 2.13817 0
295 1 69.371 2.75744 0
296 2 74.2654 8.47631 0
297 1 40.5873 59.0335 0
298 1 72.5816 35.1183 0
299 2 49.1658 36.7342 0
300 1 39.0696 43.7238 0
301 1 72.7809 19.6445 0
302 1 50.7745 35.263 0
303 1 20.24 32.0644 0
304 1 60.5844 72.431 0
305 2 58.3858 76.4407 0
306 1 63.0709 52.5641 0
307 2 73.285 38.9686 0
308 1 41.4989 5.2257 0
309 2 25.0566 16.936 0
310 2 13.4787 12.762 0
311 1 29.2533 49.468 0
312 1 67.4688 61.6604 0
313 1 74.5273 75.9982 0
314 1 40.4564 45.9827 0
315 2 56.4098 31.9463 0
316 2 39.65 63.3619 0
317 1 50.9544 20.6536 0
318 2 7.04533 31.228 0
319 1 30.6055 25.3352 0
320 1 36.1393 61.5785 0
321 1 58.7728 68.4798 0
322 2 74.2374 11.8833 0
323 2 24.9791 63.3802 0
324 1 64.3739 41.5447 0
325 1 41.173 6.20164 0
326 1 9.66413 58.89 0
327 1 49.2663 54.2865 0
328 1 0.704726 37.1331 0
329 1 41.4848 42.5076 0
330 2 51.6723 34.9748 0
331 2 69.6554 3.65929 0
332 1 59.514 28.6091 0
333 1 36.9744 12.3349 0
334 1 16.96 34.8798 0
335 1 20.4949 38.6696 0
336 2 72.0687 74.5122 0
337 1 34.5765 33.8255 0
338 2 17.1779 1.5458 0
339 1 42.4725 68.2837 0
340 1 18.9499 57.8317 0
341 2 74.0485 44.333 0
342 1 67.1799 5.64211 0
343 2 56.5864 49.8524 0
344 2 22.8763 65.9171 0
345 1 7.9421 27.6722 0
346 1 17.4726 71.8641 0
347 1 35.5512 56.8206 0
348 1 56.4988 18.9959 0
349 1 33.6026 20.1768 0
350 1 37.0618 31.1684 0
351 1 18.0578 53.7383 0
352 1 47.796 30.8853 0
353 1 75.241 25.5051 0
354 2 22.3954 25.9663 0
355 2 43.4578 18.3402 0
356 2 11.9854 2.79482 0
357 1 68.4581 67.45 0
358 1 24.5279 3.51446 0
359 1 22.4161 14.4639 0
360 2 45.158 31.3398 0
361 2 48.2677 67.0245 0
362 1 27.3718 74.4645 0
363 2 38.0805 73.4521 0
364 1 13.4281 66.5272 0
365 2 8.8256 57.1632 0
366 1 24.831 50.5511 0
367 2 19.855 23.3387 0
368 2 51.1752 55.1097 0
369 2 65.2652 70.7849 0
370 1 3.45072 28.406 0
371 1 45.8501 73.5332 0
372 2 40.3817 10.0391 0
373 1 10.3642 31.6946 0
374 2 66.5532 41.3695 0
375 1 52.4964 52.5368 0
376 2 75.411 43.2359 0
377 2 58.192 38.252 0
378 1 20.5948 63.5862 0
379 1 13.9813 20.1566 0
380 1 10.0522 62.4649 0
381 1 26.7768 23.2535 0
382 1 30.5562 23.6277 0
383 1 9.64972 11.5338 0
384 1 34.8173 51.4981 0
385 1 28.6844 77.0864 0
386 1 54.889 40.4134 0
387 1 58.7998 77.163 0
388 2 56.0858 57.7219 0
389 1 24.52 56.7171 0
390 1 28.89 13.4509 0
391 2 59.9323 26.6401 0
392 2 29.9581 10.2069 0
393 2 38.8792 64.9379 0
394 1 10.4731 73.8973 0
395 1 53.2148 22.1325 0
396 1 13.8592 70.5001 0
397 1 46.9416 17.3015 0
398 1 45.4884 70.922 0
399 1 69.4528 18.2743 0
400 1 59.1438 74.3772 0
401 1 44.4588 11.5653 0
402 2 56.5036 17.0986 0
403 1 38.1688 51.611 0
404 1 69.4464 70.7698 0
405 2 73.7331 76.3593 0
406 1 34.2892 19.2219 0
407 2 45.7074 21.8874 0
408 1 63.56 30.4507 0
409 1 18.7489 61.271 0
410 2 67.3323 16.6531 0
411 2 66.589 36.6031 0
412 1 58.9066 38.778 0
413 1 7.01492 36.5803 0
414 1 71.2351 48.3116 0
415 1 6.88058 41.5933 0
416 2 73.8428 62.4467 0
417 2 75.0306 12.891 0
418 1 54.3141 30.1758 0
419 2 56.6494 47.2152 0
420 2 24.8874 55.9327 0
421 1 60.372 19.2852 0
422 1 2.13713 70.4064 0
423 1 4.14329 12.1907 0
424 1 60.8054 26.8047 0
425 1 58.9022 50.498 0
426 1 55.8983 73.8963 0
427 2 39.6665 15.0061 0
428 1 51.338 50.6905 0
429 1 59.1515 71.2013 0
430 1 36.6718 37.1573 0
431 1 77.3978 29.4945 0
432 1 63.3536 49.0909 0
433 1 29.1441 69.1807 0
434 1 1.75041 43.0016 0
435 1 64.0833 34.2366 0
436 2 68.0766 39.1275 0
437 2 44.1338 59.924 0
438 1 39.0307 61.4527 0
439 2 41.2572 12.708 0
440 1 43.2353 43.7059 0
441 2 66.6788 14.9375 0
442 1 9.43812 38.0274 0
443 1 54.5738 16.8881 0
444 1 16.8354 75.2528 0
445 2 69.3663 67.6108 0
446 1 61.6023 42.3093 0
447 1 27.0662 70.696 0
448 1 46.895 38.0209 0
449 1 37.265 73.1319 0
450 2 48.4287 59.52 0
451 2 6.61086 61.6953 0
452 1 66.6443 11.0078 0
453 1 28.8287 76.0107 0
454 2 62.6219 29.9332 0
455 2 26.525 67.8622 0
456 1 11.3348 44.6215 0
457 2 18.893 1.94029 0
458 1 37.9928 77.0754 0
459 2 15.6312 56.7219 0
460 1 5.58675 4.31772 0
461 2 27.8583 29.3973 0
462 1 45.7142 24.4408 0
463 1 76.1698 69.7482 0
464 1 9.14895 48.0415 0
465 2 40.5445 45.0362 0
466 1 21.7376 12.6505 0
467 2 11.805 1.2013 0
468 1 19.1171 36.4547 0
469 1 1.82123 2.19459 0
470 1 61.9237 10.3919 0
471 2 73.9372 40.98 0
472 1 25.4695 42.9451 0
473 1 61.7711 66.0815 0
474 1 33.4505 54.6972 0
475 1 22.4637 59.7517 0
476 2 38.7955 32.0755 0
477 1 60.6349 11.6202 0
478 2 33.1051 75.1538 0
479 1 33.3252 22.3574 0
480 1 19.8053 25.5733 0
481 1 7.29187 18.7024 0
482 1 11.0453 25.1305 0
483 2 0.98695 1.85721 0
484 1 14.2442 38.1932 0
485 1 21.3639 57.1293 0
486 1 7.23834 4.52932 0
487 2 71.8431 10.053 0
488 1 58.568 5.95871 0
489 1 52.3367 15.3524 0
490 1 35.3967 31.2003 0
491 1 30.4376 42.39 0
492 2 61.2593 9.75504 0
493 1 73.2852 9.09019 0
494 1 67.5895 32.0382 0
495 2 22.4464 49.1689 0
496 2 52.93 42.3241 0
497 2 40.6953 6.95674 0
498 1 23.5093 25.4198 0
499 1 35.8176 74.2912 0
500 1 2.73138 3.95661 0
501 2 45.5122 43.4829 0
502 1 16.7592 24.585 0
503 1 50.2518 9.92742 0
504 1 36.8583 32.8259 0
505 2 26.808 76.8919 0
506 2 17.689 65.0954 0
507 1 42.0044 37.1935 0
508 1 12.8331 32.7606 0
509 1 28.5424 24.8595 0
510 1 6.84513 38.862 0
511 1 69.3776 26.722 0
512 1 54.6085 53.3616 0
513 1 11.6556 34.2757 0
514 1 25.4058 64.2666 0
515 2 61.4721 11.2072 0
516 2 11.3005 38.7162 0
517 2 75.5291 74.2503 0
518 2 19.306 54.3145 0
519 2 33.4909 1.83088 0
520 1 74.47 37.0092 0
521 1 42.0423 24.5569 0
522 2 24.4022 66.0308 0
523 1 77.1578 12.3659 0
524 1 70.5155 34.6818 0
525 1 23.0128 77.2882 0
526 2 76.2774 22.3948 0
527 1 49.3555 26.3303 0
528 2 74.5632 5.20758 0
529 2 34.3667 45.9034 0
530 1 7.92037 59.589 0
531 2 76.5812 68.9588 0
532 2 32.2405 60.7932 0
533 1 72.8657 5.54052 0
534 1 34.3893 27.2169 0
535 1 29.0615 19.194 0
536 1 32.7488 65.7289 0
537 1 35.0057 47.7702 0
538 2 16.5006 21.5505 0
539 2 45.9867 76.9413 0
540 1 60.9736 40.7345 0
541 2 25.2153 7.87997 0
542 1 50.8794 57.0063 0
543 2 69.7145 55.7143 0
544 2 51.9201 10.5438 0
545 1 28.1489 22.7887 0
546 1 34.378 3.22042 0
547 1 10.2695 14.2406 0
548 2 23.8567 2.95237 0
549 2 65.6469 21.9529 0
550 2 5.03572 39.4438 0
551 1 30.2364 8.26907 0
552 2 70.483 40.4128 0
553 2 29.302 45.0045 0
554 1 51.8249 62.2169 0
555 1 49.8598 56.9812 0
556 1 73.1978 68.3515 0
557 1 62.0913 53.9108 0
558 1 2.67509 68.3719 0
559 1 72.7344 36.1848 0
560 2 21.4479 61.4106 0
561 1 6.17521 1.01706 0
562 2 4.48836 11.1415 0
563 2 54.1654 48.7137 0
564 1 70.0601 68.1481 0
565 2 22.0712 1.15437 0
566 2 18.1278 23.642 0
567 1 48.9517 42.3544 0
568 2 22.982 73.9492 0
569 2 15.6975 27.3863 0
570 1 73.2382 34.2503 0
571 1 0.292482 3.62574 0
572 2 6.68241 48.6242 0
573 2 77.3421 44.9802 0
574 1 3.87576 68.2745 0
575 1 18.3957 7.62735 0
576 1 16.581 62.9793 0
577 1 43.339 50.3939 0
578 2 67.5992 34.3736 0
579 2 45.931 68.3967 0
580 1 62.7488 42.6814 0
581 1 6.72526 60.7744 0
582 2 68.7275 59.6504 0
583 2 64.1968 58.7671 0
584 2 33.5755 65.5634 0
585 1 60.0725 77.2484 0
586 1 48.9295 58.664 0
587 2 14.6744 21.5831 0
588 1 49.4889 5.26951 0
589 2 53.6211 10.3857 0
590 1 24.8788 73.3527 0
591 1 56.0282 6.65584 0
592 1 48.2479 74.3688 0
593 1 44.0061 13.3102 0
594 1 59.8666 63.551 0
595 1 72.1441 65.4491 0
596 2 6.87859 1.50061 0
597 1 3.40441 43.9881 0
598 1 69.1883 9.01711 0
599 1 2.71065 50.9359 0
600 1 0.014362 47.7316 0
601 2 42.0454 36.0845 0
602 1 62.2092 14.1858 0
603 2 71.0188 50.9782 0
604 2 62.4832 16.2187 0
605 1 52.4924 69.2003 0
606 1 41.5058 4.01359 0
607 1 76.2286 1.42026 0
608 2 1.26504 40.3697 0
609 2 40.8202 0.356765 0
610 1 7.78544 49.8729 0
611 1 54.0591 58.6567 0
612 1 76.8757 6.31172 0
613 1 77.3452 22.8652 0
614 2 50.443 28.6941 0
615 1 34.4125 39.0973 0
616 1 39.7512 16.2797 0
617 1 67.6898 77.3818 0
618 2 11.9284 42.6798 0
619 2 54.5291 42.9498 0
620 2 70.8966 73.9043 0
621 2 58.4724 35.8159 0
622 1 60.2414 18.2015 0
623 1 37.452 11.4124 0
624 2 20.4667 54.7329 0
625 1 27.2001 76.1025 0
626 1 73.7488 28.921 0
627 2 2.53768 25.1273 0
628 1 28.7187 57.9831 0
629 2 77.4395 26.0503 0
630 1 29.1643 72.7519 0
631 1 56.9575 37.198 0
632 1 21.6811 65.0069 0
633 2 25.7231 71.9787 0
634 1 18.7218 50.7325 0
635 2 41.4128 43.4218 0
636 2 36.8992 40.7152 0
637 1 11.2827 10.8544 0
638 1 67.3046 40.8807 0
639 1 70.2946 46.3478 0
640 1 0.345061 54.1321 0
641 1 36.2899 33.6904 0
642 1 9.59834 33.8757 0
643 1 50.2708 44.8279 0
644 2 19.324 27.2221 0
645 1 56.9824 52.3025 0
646 1 46.3924 46.9383 0
647 2 23.6103 9.58431 0
648 1 64.345 12.2535 0
649 2 10.8064 68.9163 0
650 2 47.4373 62.0371 0
651 1 45.9755 12.2925 0
652 1 29.6226 70.7194 0
653 2 13.7089 23.0298 0
654 2 10.4742 3.70205 0
655 1 5.56624 51.8669 0
656 1 72.8583 53.9321 0
657 1 33.6866 46.4677 0
658 1 71.5625 12.972 0
659 2 1.07313 66.1553 0
660 1 26.3521 35.6346 0
661 1 37.274 9.87353 0
662 1 32.6322 60.0266 0
663 1 10.6236 28.6822 0
664 1 57.9826 75.6927 0
665 2 49.0149 77.051 0
666 2 12.7817 58.0965 0
667 1 26.5439 73.7505 0
668 2 7.91336 76.1997 0
669 1 4.44325 9.23102 0
670 2 43.8122 37.7178 0
671 2 37.3235 17.6346 0
672 1 10.0878 19.3872 0
673 1 6.88025 16.6309 0
674 1 32.5639 42.4676 0
675 2 6.40236 58.2966 0
676 2 38.0978 6.43941 0
677 1 41.5843 54.2425 0
678 1 53.7545 39.222 0
679 1 46.0309 69.2533 0
680 1 31.6675 53.7098 0
681 1 26.3006 53.9182 0
682 1 62.4669 59.5594 0
683 1 18.0665 59.2912 0
684 1 64.4459 68.9587 0
685 2 35.8788 18.7209 0
686 1 51.2185 5.58867 0
687 1 41.631 19.0941 0
688 2 53.3013 73.5179 0
689 1 72.0523 62.5455 0
690 1 66.3334 72.4642 0
691 1 41.6292 39.6909 0
692 2 59.9594 44.1003 0
693 1 71.3566 77.0421 0
694 2 53.7469 64.3086 0
695 1 42.3392 11.924 0
696 2 35.6383 47.029 0
697 1 25.3908 12.7468 0
698 1 8.53478 3.52366 0
699 1 66.7817 13.7856 0
700 1 71.9299 47.0731 0
701 1 64.1352 31.3033 0
702 1 63.6505 65.4256 0
703 2 71.9113 2.29364 0
704 2 8.33094 61.3403 0
705 2 4.98869 7.33958 0
706 1 52.0697 51.4953 0
707 2 59.7618 38.5566 0
708 1 50.4671 43.2681 0
709 1 51.402 73.0618 0
710 2 60.3617 28.4027 0
711 1 56.0701 54.2246 0
712 2 62.7696 32.744 0
713 2 68.4201 70.3741 0
714 2 0.242271 64.5876 0
715 1 45.2606 19.1003 0
716 1 76.333 29.8362 0
717 1 29.8143 63.3467 0
718 1 14.3519 3.66124 0
719 1 53.2538 37.0071 0
720 2 49.1411 38.6498 0
721 2 66.8292 39.871 0
722 1 48.9544 8.07642 0
723 2 39.8756 75.3351 0
724 2 10.416 59.4685 0
725 1 50.7337 39.2206 0
726 1 8.21551 29.8823 0
727 2 13.0934 1.57888 0
728 1 67.5806 55.5043 0
729 2 21.6261 59.6846 0
730 1 32.6539 27.5246 0
731 2 16.5267 36.3642 0
732 1 16.4734 54.3425 0
733 1 29.7886 29.6254 0
734 2 66.3925 46.51 0
735 1 66.6751 67.2743 0
736 1 47.0138 49.4535 0
737 2 4.05764 45.6687 0
738 1 13.5224 34.4761 0
739 1 17.8257 37.4942 0
740 1 48.429 38.1229 0
741 2 57.4345 55.7426 0
742 1 58.9351 37.636 0
743 1 26.9743 61.9931 0
744 2 72.0553 19.1177 0
745 1 23.1886 72.6376 0
746 1 35.1161 10.1778 0
747 1 47.3862 76.1628 0
748 2 43.0875 69.7528 0
749 2 22.322 24.1939 0
750 1 55.3687 35.1905 0
751 1 57.6896 40.344 0
752 2 1.49007 70.9349 0
753 1 52.8822 39.9211 0
754 2 21.896 15.1578 0
755 1 23.9716 49.9177 0
756 2 49.2241 75.9059 0
757 1 48.475 19.5728 0
758 1 6.12985 9.75278 0
759 1 61.8791 47.0502 0
760 1 12.1491 10.2566 0
761 1 70.1374 71.5505 0
762 1 15.2355 57.5301 0
763 2 77.1765 7.17129 0
764 1 75.099 57.3055 0
765 2 47.0695 57.0739 0
766 1 63.1647 22.759 0
767 1 13.8258 1.01817 0
768 1 65.319 7.80963 0
769 1 61.6988 50.1239 0
770 2 60.1813 73.1765 0
771 1 18.7808 39.9372 0
772 1 44.8204 50.9772 0
773 1 40.5877 43.1292 0
774 2 32.4794 25.7216 0
775 1 71.6559 30.6707 0
776 2 44.1484 42.4907 0
777 1 70.466 55.3712 0
778 2 10.6178 63.0881 0
779 1 45.1496 25.3718 0
780 1 17.3156 6.24349 0
781 1 30.5538 35.7072 0
782 1 57.4479 64.9427 0
783 1 60.6553 35.5926 0
784 1 70.7731 50.0896 0
785 2 8.82452 11.3424 0
786 1 73.4772 70.171 0
787 1 20.9591 66.5833 0
788 1 39.9725 54.9541 0
789 1 11.2348 4.28692 0
790 1 52.154 70.2303 0
791 1 45.7708 13.3876 0
792 1 8.92571 25.0581 0
793 1 25.2695 14.8858 0
794 2 70.5689 16.138 0
795 2 75.8024 14.2786 0
796 2 75.7688 67.9797 0
797 1 44.7968 65.288 0
798 1 38.4421 19.188 0
799 1 44.0966 76.469 0
800 1 30.5331 70.2234 0
801 2 6.62898 26.0435 0
802 2 27.8185 45.5256 0
803 2 23.8435 76.9717 0
804 2 52.6047 36.1813 0
805 1 23.9942 71.8915 0
806 1 53.0273 70.8252 0
807 2 39.8102 50.534 0
808 1 50.1344 47.5437 0
809 2 36.4225 62.4246 0
810 1 57.6045 76.7315 0
811 1 28.6834 60.9058 0
812 2 59.783 48.1873 0
813 2 46.4811 58.2983 0
814 1 54.2695 31.2865 0
815 2 41.0125 17.1738 0
816 1 27.9246 34.7178 0
817 1 67.6365 75.6282 0
818 2 36.8807 16.2037 0
819 2 45.5775 57.0081 0
820 1 66.9093 69.8582 0
821 1 16.8774 64.8224 0
822 1 56.1912 76.7967 0
823 1 17.2147 55.7542 0
824 2 35.0649 40.7464 0
825 1 28.9483 41.4808 0
826 1 32.243 74.8214 0
827 1 7.50641 25.9919 0
828 1 76.8787 51.2572 0
829 1 72.1233 40.4114 0
830 2 48.0319 64.581 0
831 2 43.1988 4.5372 0
832 1 73.6843 13.7013 0
833 1 24.4332 43.3291 0
834 2 48.5346 5.65935 0
835 1 68.719 6.43626 0
836 1 58.2739 27.6649 0
837 1 56.2866 41.346 0
838 1 39.0661 52.9757 0
839 1 16.0994 60.2129 0
840 2 15.645 46.611 0
841 1 36.8624 52.6316 0
842 2 11.2336 61.3002 0
843 1 5.41166 42.5457 0
844 1 63.4568 21.6683 0
845 2 28.0725 2.09564 0
846 1 49.5417 39.5837 0
847 1 10.8909 57.6037 0
848 2 68.9357 47.7272 0
849 1 74.1503 11.016 0
850 1 67.5449 20.1011 0
851 1 39.4314 18.8516 0
852 1 12.3164 1.95849 0
853 1 42.755 61.3699 0
854 1 37.5595 69.5571 0
855 1 39.4834 25.7576 0
856 2 18.5124 41.8881 0
857 1 57.846 34.0049 0
858 2 34.362 29.0744 0
859 1 13.3281 64.7663 0
860 2 2.01406 58.5592 0
861 2 60.231 40.207 0
862 2 3.35692 69.0496 0
863 1 58.9625 23.6876 0
864 1 60.3947 53.8429 0
865 2 66.1993 68.046 0
866 1 60.529 17.0627 0
867 2 31.4077 21.9216 0
868 1 37.1798 61.7838 0
869 1 62.0904 20.1055 0
870 1 0.0635734 53.0023 0
871 1 62.8517 26.1526 0
872 1 42.3286 50.7282 0
873 1 50.782 62.372 0
874 1 4.16675 72.1132 0
875 1 34.0618 57.7632 0
876 2 51.5065 7.9489 0
877 1 13.586 55.4513 0
878 2 14.8139 15.8852 0
879 1 76.6117 14.0621 0
880 2 31.7069 33.4654 0
881 2 51.8811 29.4338 0
882 2 47.8521 73.6443 0
883 1 25.7021 19.8933 0
884 1 56.0372 36.8022 0
885 1 38.9417 5.06297 0
886 1 37.1786 60.1733 0
887 2 54.8514 50.2003 0
888 1 0.641138 76.8134 0
889 2 59.3298 49.7124 0
890 2 8.07039 25.3025 0
891 1 38.1206 10.6009 0
892 1 40.2334 67.5817 0
893 1 29.9791 53.5775 0
894 1 77.0431 15.0444 0
895 2 32.2817 53.0744 0
896 1 37.5357 2.64119 0
897 2 35.6823 17.1033 0
898 1 31.0278 43.3877 0
899 1 1.88506 75.7192 0
900 2 38.5245 0.293878 0
901 1 53.5112 41.6548 0
902 1 24.4618 75.2332 0
903 1 37.7624 40.6085 0
904 2 77.4197 37.6004 0
905 1 63.7696 62.2709 0
906 1 68.9357 44.8187 0
907 1 3.64503 29.8 0
908 1 50.6556 23.908 0
909 1 0.317463 48.799 0
910 2 1.86345 50.7907 0
911 2 4.64558 4.56196 0
912 2 36.0192 32.8484 0
913 2 31.9016 51.4142 0
914 1 18.3922 12.7936 0
915 2 64.836 5.3177 0
916 1 3.35099 39.9331 0
917 2 5.08355 33.2815 0
918 2 19.2295 35.5054 0
919 1 8.21117 57.8434 0
920 1 15.8089 47.4975 0
921 1 0.620076 26.568 0
922 2 50.8595 19.1635 0
923 2 12.4384 24.2148 0
924 1 39.2554 17.8056 0
925 1 66.3014 47.3839 0
926 2 35.3603 35.4011 0
927 1 68.7053 77.4534 0
928 1 52.4176 58.9943 0
929 2 52.0933 32.3575 0
930 2 20.1319 15.7709 0
931 1 40.8523 47.5744 0
932 1 70.4186 39.1623 0
933 1 34.3325 21.9432 0
934 1 1.88801 60.2911 0
935 1 11.3645 50.7286 0
936 2 42.1506 4.61335 0
937 1 14.116 73.2733 0
938 1 36.8036 67.6204 0
939 2 50.048 51.5732 0
940 1 75.8067 46.8719 0
941 1 77.1659 17.6895 0
942 1 37.8378 29.7943 0
943 2 22.2695 16.6272 0
944 2 1.91145 42.0211 0
945 1 40.4173 25.3321 0
946 1 64.5301 67.199 0
947 2 25.2096 1.8667 0
948 1 39.5432 68.4155 0
949 1 27.0244 12.5382 0
950 2 5.1758 9.73698 0
951 1 69.0336 65.648 0
952 2 52.4734 2.79644 0
953 2 7.73331 44.8626 0
954 2 29.8488 62.448 0
955 1 27.0217 38.455 0
956 2 58.8014 11.0343 0
957 1 48.3184 23.7625 0
958 2 19.7596 2.6189 0
959 2 74.6961 26.1947 0
960 2 29.1411 66.7437 0
961 1 49.6857 52.385 0
962 1 24.4501 1.36036 0
963 1 16.3056 12.5086 0
964 2 8.6547 9.66683 0
965 2 53.7861 53.751 0
966 1 0.793784 62.7702 0
967 1 49.7782 35.6932 0
968 1 18.5054 0.0398684 0
969 1 58.0604 23.2405 0
970 2 22.7837 4.43162 0
971 1 21.2908 14.4668 0
972 1 6.88756 25.1313 0
973 1 0.481499 36.0593 0
974 2 1.19491 35.529 0
975 2 72.9232 65.8091 0
976 2 34.6684 20.0016 0
977 1 36.027 63.2829 0
978 2 3.62699 76.6182 0
979 2 36.1861 65.7179 0
980 1 73.2879 14.6681 0
981 1 73.7192 58.267 0
982 1 7.89117 54.737 0
983 1 18.4674 24.47 0
984 1 9.29457 57.9357 0
985 1 34.6097 11.16 0
986 1 37.9764 52.6248 0
987 2 18.2738 11.963 0
988 2 42.1093 34.908 0
989 2 9.74674 34.832 0
990 2 70.038 51.774 0
991 2 46.2287 15.0015 0
992 1 62.4162 34.6182 0
993 2 29.228 5.72167 0
994 2 1.93785 55.0165 0
995 1 38.8191 22.3212 0
996 2 54.9895 56.9057 0
997 2 43.4211 30.8288 0
998 2 59.6414 75.0974 0
999 2 39.2207 26.6214 0
1000 2 0.413526 49.6855 0
1001 1 41.8666 65.2704 0
1002 1 23.5149 34.8733 0
1003 1 9.5759 54.1853 0
1004 1 7.74439 22.3771 0
1005 2 10.9595 23.5826 0
1006 2 67.8801 60.9186 0
1007 1 18.9503 20.1639 0
1008 1 47.923 17.0687 0
1009 1 30.8271 32.9967 0
1010 1 11.3974 43.5009 0
1011 2 10.679 22.122 0
1012 2 2.60198 23.4887 0
1013 2 65.1075 56.0926 0
1014 1 74.1759 15.3781 0
1015 1 76.0024 9.45613 0
1016 1 37.0842 47.7953 0
1017 2 68.8691 54.2818 0
1018 1 26.4895 24.9411 0
1019 1 44.1919 29.0648 0
1020 2 32.6595 6.23568 0
1021 2 15.9376 24.2809 0
1022 1 4.8702 60.8505 0
1023 1 41.0326 9.42519 0
1024 1 9.55649 67.6071 0
1025 1 37.1231 65.7793 0
1026 1 7.8745 40.2295 0
1027 1 47.335 2.70069 0
1028 1 1.86054 33.0211 0
1029 1 49.066 18.3825 0
1030 2 46.665 47.8058 0
1031 2 37.5761 37.0225 0
1032 1 16.3924 73.1251 0
1033 1 57.5583 19.2774 0
1034 1 35.1077 29.4926 0
1035 1 65.8266 28.3678 0
1036 2 73.5784 45.9728 0
1037 1 30.6851 73.0877 0
1038 1 68.6915 60.5254 0
1039 1 5.06218 31.37 0
1040 2 64.9745 34.2627 0
1041 1 35.4209 65.0271 0
1042 2 62.8751 68.3432 0
1043 2 60.8695 58.4771 0
1044 1 68.3202 23.4755 0
1045 1 66.8371 23.7306 0
1046 1 41.1632 68.1043 0
1047 2 9.92996 47.6633 0
1048 1 53.2447 77.4182 0
1049 1 59.8581 49.0588 0
1050 2 45.4218 6.44778 0
1051 1 43.3718 31.8129 0
1052 1 66.2972 44.6065 0
1053 2 32.7118 18.4359 0
1054 1 55.0614 7.09894 0
1055 2 32.7737 46.4922 0
1056 2 14.6234 45.1821 0
1057 1 12.0262 71.5881 0
1058 1 27.5785 5.64625 0
1059 1 9.42337 75.4455 0
1060 2 21.7361 42.0898 0
1061 1 10.2263 23.0359 0
1062 2 16.9626 41.2674 0
1063 1 0.2439 67.8619 0
1064 1 23.53 4.82952 0
1065 2 29.6916 52.7711 0
1066 1 37.3628 46.0914 0
1067 1 14.1062 10.2113 0
1068 2 35.6133 66.9233 0
1069 1 68.3626 24.5511 0
1070 2 8.02268 34.4516 0
1071 2 49.607 42.9674 0
1072 2 9.42791 48.8173 0
1073 2 16.3726 3.83992 0
1074 2 33.5707 44.3517 0
1075 1 75.9714 49.8639 0
1076 1 41.1875 7.69886 0
1077 1 41.4921 32.5709 0
1078 2 71.7445 26.1876 0
1079 2 38.998 10.8476 0
1080 2 30.022 72.5596 0
1081 2 45.5113 48.6479 0
1082 2 6.28639 27.5256 0
1083 2 21.6519 19.9177 0
1084 1 44.3342 58.0495 0
1085 1 19.125 52.3351 0
1086 1 70.1354 67.0676 0
1087 1 29.6287 71.7821 0
1088 1 45.0199 63.1361 0
1089 2 8.44546 31.6323 0
1090 1 42.8384 34.4394 0
1091 2 27.8069 17.5556 0
1092 1 63.1808 53.6478 0
1093 1 69.2219 33.0268 0
1094 2 43.2836 55.2487 0
1095 1 25.4529 71.1224 0
1096 2 48.1763 18.7885 0
1097 1 76.0972 17.792 0
1098 1 62.7769 43.7382 0
1099 1 31.224 4.99247 0
1100 1 67.625 2.52699 0
1101 1 75.09 11.9984 0
1102 1 26.2581 74.7226 0
1103 1 51.2119 70.6659 0
1104 1 47.3419 57.9093 0
1105 1 48.1391 40.2631 0
1106 1 16.4846 71.4099 0
1107 2 45.5309 62.3804 0
1108 1 55.7174 31.3316 0
1109 1 73.1655 25.3368 0
1110 2 14.9236 11.7469 0
1111 1 2.65889 57.0809 0
1112 1 75.9726 18.8993 0
1113 2 75.45 7.84195 0
1114 2 14.7322 53.0647 0
1115 2 32.9351 49.3394 0
1116 1 77.0547 65.21 0
1117 1 66.9935 56.4842 0
1118 1 12.9698 75.0528 0
1119 2 11.4479 64.3987 0
1120 1 40.8475 57.9751 0
1121 2 21.3112 64.1678 0
1122 1 31.753 32.5858 0
1123 2 23.0276 51.8211 0
1124 1 53.0091 61.8419 0
1125 2 14.8818 4.27004 0
1126 2 15.5855 20.1647 0
1127 1 74.6735 23.8602 0
1128 1 67.3591 52.1136 0
1129 1 60.9118 39.6452 0
1130 1 30.5434 47.3297 0
1131 1 62.5442 15.2538 0
1132 2 76.0632 63.7936 0
1133 2 56.0911 22.5545 0
1134 2 20.9507 71.9866 0
1135 1 1.05843 68.6753 0
1136 2 51.0389 26.9448 0
1137 1 51.1551 61.3499 0
1138 1 30.5402 13.6097 0
1139 2 57.602 52.8975 0
1140 2 9.28813 22.8849 0
1141 1 75.0643 65.7572 0
1142 1 27.105 52.2829 0
1143 1 48.1346 44.6612 0
1144 2 60.9411 16.2724 0
1145 1 37.9605 62.4769 0
1146 1 15.5574 18.7686 0
1147 1 28.1319 25.766 0
1148 1 10.7335 36.8725 0
1149 1 57.6529 29.3367 0
1150 2 65.5005 61.1305 0
1151 1 22.2608 3.66515 0
1152 1 59.8708 52.1798 0
1153 1 71.6935 29.6783 0
1154 1 14.0015 4.66221 0
1155 2 60.1856 20.1553 0
1156 1 44.4953 32.143 0
1157 1 12.3615 18.0173 0
1158 2 58.2635 47.8575 0
1159 2 5.5536 70.8446 0
1160 1 33.1167 7.76869 0
1161 2 44.596 56.0675 0
1162 1 16.0386 9.8892 0
1163 2 13.2945 73.1095 0
1164 1 23.9011 58.6757 0
1165 1 20.9536 45.565 0
1166 2 15.3708 50.6137 0
1167 1 28.0331 20.2287 0
1168 1 56.3994 64.6614 0
1169 1 19.8139 66.8211 0
1170 2 6.43406 33.557 0
1171 1 48.4771 34.0132 0
1172 1 23.1049 6.45946 0
1173 1 51.7685 64.0139 0
1174 1 38.7157 29.2553 0
1175 2 62.6186 44.6028 0
1176 1 68.3324 36.6912 0
1177 1 47.7149 69.9983 0
1178 2 61.142 47.6119 0
1179 1 72.3612 32.6951 0
1180 1 52.0143 18.0005 0
1181 1 54.3924 23.0777 0
1182 1 60.1479 74.0671 0
1183 2 43.0215 73.3633 0
1184 2 28.0723 21.878 0
1185 1 17.7114 63.1627 0
1186 1 48.3866 48.7449 0
1187 1 73.9719 72.2188 0
1188 2 4.70823 37.7567 0
1189 1 60.929 65.4995 0
1190 1 28.3631 51.4205 0
1191 2 72.1265 4.97417 0
1192 1 24.5865 47.0693 0
1193 1 47.5696 18.1906 0
1194 2 16.7165 15.934 0
1195 1 74.1549 48.8673 0
1196 1 21.8484 49.7587 0
1197 1 35.4784 38.9761 0
1198 1 61.9117 76.0394 0
1199 2 57.8777 62.6292 0
1200 1 27.8169 8.51581 0
1201 1 2.93904 73.1173 0
1202 1 5.79873 48.9086 0
1203 2 47.4374 12.544 0
1204 1 57.6607 56.6378 0
1205 1 66.5411 50.282 0
1206 1 52.2346 5.05393 0
1207 1 31.807 62.6622 0
1208 1 75.3408 58.3325 0
1209 2 65.4207 59.8347 0
1210 1 69.7456 32.0794 0
1211 2 25.411 35.767 0
1212 1 33.7625 36.4316 0
1213 1 61.2478 69.0871 0
1214 1 61.6383 23.6341 0
1215 1 11.0197 72.0663 0
1216 1 11.1174 49.3828 0
1217 2 68.392 2.8856 0
1218 2 61.5837 20.9665 0
1219 1 30.3828 15.332 0
1220 1 61.9548 17.932 0
1221 1 61.8333 54.9837 0
1222 2 66.4752 75.0938 0
1223 1 42.2338 48.0223 0
1224 1 0.675758 33.9404 0
1225 1 3.25503 25.667 0
1226 2 65.9345 64.9266 0
1227 1 42.1117 56.747 0
1228 1 76.4565 70.8155 0
1229 2 47.9432 9.37144 0
1230 1 25.5952 49.7102 0
1231 2 52.8727 18.2252 0
1232 1 67.7683 38.2768 0
1233 1 39.0671 58.0032 0
1234 1 1.72591 67.8745 0
1235 1 18.077 45.9751 0
1236 1 52.503 63.0272 0
1237 1 37.9202 20.8622 0
1238 1 24.9444 6.95591 0
1239 1 12.9425 22.5874 0
1240 1 24.264 62.8578 0
1241 1 76.4098 63.0153 0
1242 1 35.1237 57.7533 0