ITEM: TIMESTEP
0
ITEM: NUMBER OF ATOMS
7200
ITEM: BOX BOUNDS xy xz yz pp pp pp
0.0000000000000000e+00 7.7459666924100006e+01 0.0000000000000000e+00
0.0000000000000000e+00 7.7459666924100006e+01 0.0000000000000000e+00
-1.2909944490000000e-01 1.2909944490000000e-01 0.0000000000000000e+00
ITEM: ATOMS id type x y z
1 1 12.1415 20.1699 0
2 1 14.8932 64.0116 0
3 1 75.2116 71.088 0
4 1 20.3961 8.05904 0
5 1 34.5761 55.9769 0
6 1 56.6633 28.6027 0
7 2 5.42226 3.33355 0
8 2 64.6773 46.4165 0
9 1 42.1559 56.1404 0
10 2 19.0286 14.6565 0
11 2 25.4004 53.1774 0
12 1 55.1967 11.5858 0
13 2 23.2493 6.00222 0
14 1 46.5698 70.6635 0
15 1 39.3718 31.2713 0
16 1 18.1726 14.9301 0
17 1 31.3773 40.0799 0
18 1 33.8094 5.78716 0
19 1 27.0548 57.8227 0
20 2 44.8896 3.66437 0
21 1 12.1991 65.9393 0
22 1 54.3914 10.8494 0
23 1 75.6087 45.751 0
24 1 55.9461 66.3333 0
25 1 6.7211 71.0663 0
26 1 21.117 67.6276 0
27 2 28.9976 63.8062 0
28 1 51.3892 74.2516 0
29 2 22.4731 47.9294 0
30 2 25.3231 32.0711 0
31 1 15.2016 53.3544 0
32 1 50.9912 37.986 0
33 1 60.7393 48.5231 0
34 2 45.3774 9.67933 0
35 1 75.2132 63.1586 0
36 1 30.6486 60.0644 0
37 1 22.3381 61.5034 0
38 1 45.8315 19.823 0
39 1 22.3939 5.67293 0
40 2 24.8896 59.2079 0
41 2 18.4967 64.6664 0
42 1 20.9471 1.21027 0
43 1 18.9319 33.5237 0
44 1 34.3688 62.7253 0
45 1 3.34745 34.5302 0
46 1 68.2302 7.61522 0
47 1 73.5726 59.0824 0
48 1 44.1484 68.3152 0
49 2 77.2889 4.16252 0
50 1 31.0803 66.7004 0
51 1 1.30699 9.98492 0
52 2 33.1387 24.1805 0
53 1 53.6151 18.6793 0
54 1 49.6351 30.3031 0
55 1 9.67371 1.01753 0
56 1 45.9314 26.0509 0
57 1 67.4527 42.9881 0
58 1 69.8267 69.1297 0
59 1 34.2134 2.14707 0
60 1 28.6249 3.38842 0
61 1 40.5383 75.9933 0
62 1 52.1706 45.0206 0
63 1 57.2541 9.90483 0
64 1 50.5542 45.7652 0
65 1 66.9454 73.7195 0
66 2 56.0575 11.4349 0
67 2 40.7019 35.8954 0
68 2 0.822468 29.1504 0
69 1 61.9481 45.3773 0
70 1 8.39518 35.5036 0
71 2 7.50385 42.2793 0
72 1 76.858 3.36715 0
73 1 6.28392 64.1372 0
74 2 41.5116 22.8686 0
75 1 75.4763 53.3592 0
76 1 19.6857 46.9162 0
77 1 25.0515 74.5137 0
78 1 3.59289 15.5579 0
79 1 12.6117 73.3659 0
80 1 43.5264 16.5925 0
81 1 55.0298 62.2519 0
82 2 44.3698 16.6534 0
83 1 5.74185 32.9881 0
84 1 33.0437 45.7881 0
85 1 34.575 20.7713 0
86 2 34.6864 64.7455 0
87 1 71.5229 34.7569 0
88 1 18.4896 54.76 0
89 1 27.7317 13.084 0
90 1 37.4784 37.9392 0
91 2 45.8588 41.0646 0
92 2 41.2773 56.1081 0
93 1 27.7406 16.8905 0
94 1 33.4992 55.7153 0
95 2 39.1442 56.7683 0
96 1 65.4094 1.27741 0
97 1 44.1376 49.0961 0
98 2 2.91579 60.0304 0
99 1 61.7866 48.224 0
100 2 32.4158 30.7828 0
101 1 47.6507 54.4024 0
102 1 55.9733 21.6057 0
103 1 56.6701 70.4279 0
104 1 2.73798 60.9018 0
105 2 40.1949 3.04185 0
106 2 30.4314 34.8122 0
107 1 13.1761 31.368 0
108 1 0.7908 0.850532 0
109 1 35.691 41.6255 0
110 2 65.1633 25.5231 0
111 1 65.9809 12.0266 0
112 1 34.2949 72.8355 0
113 2 0.40161 60.3445 0
114 2 74.5406 29.4534 0
115 2 30.3445 12.8029 0
116 2 74.6484 53.6035 0
117 1 16.1976 45.9131 0
118 2 46.7719 26.5026 0
119 1 62.7578 0.0669756 0
120 2 5.9998 49.7856 0
121 1 6.28054 3.59441 0
122 1 19.9235 33.124 0
123 2 5.37263 17.7788 0
124 1 46.3929 57.2456 0
125 1 31.6651 27.2424 0
126 1 57.9795 52.1574 0
127 1 4.51435 58.9219 0
128 1 14.4388 23.418 0
129 1 16.5004 52.243 0
130 1 7.23892 2.10909 0
131 1 59.0762 24.9305 0
132 2 31.1246 41.877 0
133 2 52.7277 6.98068 0
134 1 65.7901 50.956 0
135 1 31.5989 30.3681 0
136 2 55.1776 46.4407 0
137 1 61.6993 56.618 0
138 2 70.4388 47.9751 0
139 1 68.3692 27.2446 0
140 1 3.52823 21.8771 0
141 2 48.0706 63.5498 0
142 1 6.53026 22.6293 0
143 2 40.5911 70.1454 0
144 2 47.3735 75.2715 0
145 2 18.339 52.9462 0
146 1 55.0163 4.10305 0
147 1 9.37004 38.9819 0
148 1 46.3492 53.3828 0
149 2 67.9549 49.0859 0
150 1 32.8448 56.579 0
151 2 29.5159 13.8376 0
152 1 48.8727 63.1638 0
153 2 17.3075 46.3551 0
154 2 31.4912 72.2477 0
155 1 70.493 48.9132 0
156 1 43.5579 10.2926 0
157 1 49.2515 71.1426 0
158 1 60.1939 69.2407 0
159 2 10.5634 26.0514 0
160 1 38.1975 17.4636 0
161 1 7.2114 63.5355 0
162 2 72.6316 23.9991 0
163 1 30.5777 27.1275 0
164 1 60.1925 29.4614 0
165 1 75.6606 27.817 0
166 1 1.93149 44.7176 0
167 1 39.2878 0.850104 0
168 1 38.4962 72.8603 0
169 1 56.6768 30.9466 0
170 1 57.4285 1.01636 0
171 2 36.873 61.1109 0
172 2 33.6784 53.8067 0
173 2 43.7805 24.3443 0
174 2 27.52 55.997 0
175 2 30.9208 26.3133 0
176 1 46.2714 16.2609 0
177 1 19.7044 58.6547 0
178 1 61.8467 61.3437 0
179 1 64.6074 24.8486 0
180 2 33.2846 39.6848 0
181 1 45.2185 27.621 0
182 1 61.8092 58.5904 0
183 2 12.1181 37.3984 0
184 1 5.22144 67.5208 0
185 2 67.1702 29.4703 0
186 1 59.0385 35.0804 0
187 1 39.5147 46.4328 0
188 1 57.2936 47.7098 0
189 2 63.7609 53.0083 0
190 1 23.2287 4.08331 0
191 1 71.7819 8.11955 0
192 1 65.5122 10.2927 0
193 2 10.8745 41.6175 0
194 2 68.6298 69.048 0
195 1 11.1346 3.32585 0
196 2 49.5224 54.9131 0
197 2 20.1968 9.97909 0
198 1 13.4302 61.2304 0
199 2 75.6823 66.1798 0
200 1 59.9005 27.7416 0
201 2 34.7004 1.40982 0
202 2 74.6169 55.1489 0
203 1 52.3435 65.6746 0
204 1 29.6452 3.78148 0
205 1 56.0956 26.0559 0
206 2 35.7429 37.0313 0
207 2 14.0407 9.46975 0
208 1 33.724 14.0225 0
209 1 12.1681 11.519 0
210 2 5.33746 20.479 0
211 1 17.2009 8.14197 0
212 2 24.8322 6.25845 0
213 2 56.0071 27.9981 0
214 1 71.0795 57.7618 0
215 2 66.9773 22.3769 0
216 1 20.6557 73.6309 0
217 1 59.5221 34.1345 0
218 2 54.7156 58.5323 0
219 2 68.0026 42.299 0
220 2 43.0098 64.038 0
221 1 18.9966 45.3364 0
222 1 45.04 12.4564 0
223 2 39.1281 67.8133 0
224 2 27.7738 68.6711 0
225 1 32.3875 23.6675 0
226 2 66.417 57.2068 0
227 2 6.00512 16.4159 0
228 1 34.5985 9.30701 0
229 1 70.9602 26.836 0
230 1 32.1954 74.4823 0
231 1 10.7044 34.3047 0
232 1 42.1163 12.8676 0
233 1 34.9003 7.63329 0
234 1 76.1207 8.29816 0
235 1 60.7596 59.0655 0
236 2 44.8112 70.4044 0
237 1 77.1644 62.2376 0
238 2 9.25106 21.4797 0
239 1 58.5873 2.83572 0
240 2 61.629 46.2305 0
241 1 47.3748 66.6737 0
242 1 18.5251 30.6533 0
243 1 7.26872 56.289 0
244 1 61.2224 64.295 0
245 1 11.0623 30.8583 0
246 1 1.99711 35.6019 0
247 1 65.6761 49.9034 0
248 1 12.2907 0.818386 0
249 2 50.3442 41.1958 0
250 1 29.0793 9.37634 0
251 2 57.6455 50.2054 0
252 2 65.779 23.2306 0
253 1 19.847 17.5453 0
254 1 54.3609 25.0254 0
255 1 65.5074 42.868 0
256 1 31.4623 8.53619 0
257 1 22.1796 57.8843 0
258 1 26.1649 38.7029 0
259 1 55.5518 56.7644 0
260 2 43.9738 53.8443 0
261 2 26.3819 62.6573 0
262 1 24.3391 33.7532 0
263 2 12.591 34.6922 0
264 2 71.4433 59.8595 0
265 1 77.0209 46.7191 0
266 1 38.0944 44.7654 0
267 2 61.5642 24.6272 0
268 2 56.5978 45.8589 0
269 1 48.1211 21.0401 0
270 2 9.06567 47.0418 0
271 2 22.4794 33.5615 0
272 2 20.392 14.2306 0
273 1 14.9729 65.0821 0
274 1 32.2935 50.0134 0
275 1 8.6121 49.0029 0
276 1 75.3232 10.1838 0
277 2 15.5857 71.3639 0
278 1 7.56283 17.4731 0
279 1 4.52371 44.3599 0
280 1 20.405 35.7954 0
281 1 30.6491 38.5491 0
282 2 75.9273 26.4752 0
283 1 76.4608 55.8036 0
284 2 54.2099 38.324 0
285 1 71.0094 52.8475 0
286 1 11.361 63.3552 0
287 1 19.1148 76.7857 0
288 2 75.7332 3.849 0
289 2 21.4154 39.158 0
290 2 69.2489 76.4002 0
291 1 35.212 22.5611 0
292 1 27.8005 58.5722 0
293 1 47.4317 18.9963 0
294 1 40.4011 2.19219 0
295 1 69.9693 3.25238 0
296 2 74.175 8.46194 0
297 1 40.3584 59.8333 0
298 1 72.5765 35.0727 0
299 2 49.2376 36.5176 0
300 1 39.2109 43.7873 0
301 1 73.5163 19.6523 0
302 1 50.8402 35.2257 0
303 1 20.41 32.175 0
304 1 60.5654 72.3781 0
305 2 59.1283 75.9624 0
306 1 63.0244 52.5244 0
307 2 73.3348 38.7885 0
308 1 41.6147 5.24169 0
309 2 24.9241 16.9035 0
310 2 13.3387 12.94 0
311 1 29.3092 49.5845 0
312 1 67.3983 61.6276 0
313 1 74.7489 76.1108 0
314 1 40.5379 45.9951 0
315 2 56.3126 31.7757 0
316 2 39.5856 63.4419 0
317 1 50.8868 20.5962 0
318 2 7.02406 31.2736 0
319 1 30.921 25.4164 0
320 1 36.1765 61.6806 0
321 1 58.6832 68.3864 0
322 2 74.0336 11.8346 0
323 2 25.1009 63.5347 0
324 1 64.3709 41.5341 0
325 1 41.3186 6.29473 0
326 1 9.79916 58.888 0
327 1 48.6696 54.7785 0
328 1 0.752174 37.015 0
329 1 41.6733 42.6756 0
330 2 51.7066 34.9122 0
331 2 70.0665 4.10865 0
332 1 59.44 28.727 0
333 1 36.9965 12.2486 0
334 1 17.0632 34.8313 0
335 1 20.6494 38.707 0
336 2 72.3626 74.3775 0
337 1 34.694 33.7576 0
338 2 17.0435 1.55945 0
339 1 42.578 68.5251 0
340 1 18.884 57.8986 0
341 2 74.0427 44.1806 0
342 1 67.0685 5.92147 0
343 2 56.3862 49.8262 0
344 2 22.8485 66.0286 0
345 1 7.97579 27.7719 0
346 1 17.4733 71.7983 0
347 1 35.4225 56.6205 0
348 1 56.6052 18.9166 0
349 1 33.7401 20.0929 0
350 1 37.1728 31.1472 0
351 1 18.0231 53.7755 0
352 1 47.8237 30.7836 0
353 1 75.3463 25.8076 0
354 2 22.5993 26.2806 0
355 2 43.4684 18.2079 0
356 2 11.8652 2.8179 0
357 1 68.4801 67.4821 0
358 1 24.262 3.75354 0
359 1 22.2718 14.5223 0
360 2 45.1852 31.2914 0
361 2 48.1199 67.2521 0
362 1 27.0926 74.6286 0
363 2 38.0521 73.6074 0
364 1 13.1325 66.5024 0
365 2 8.97714 57.1398 0
366 1 24.8988 50.6783 0
367 2 19.7787 23.4214 0
368 2 51.3245 54.9671 0
369 2 65.2354 70.5645 0
370 1 3.43136 28.365 0
371 1 46.0769 73.5182 0
372 2 40.5131 9.96878 0
373 1 10.4563 31.7421 0
374 2 66.5784 41.2885 0
375 1 52.1925 52.7714 0
376 2 75.4675 43.1764 0
377 2 58.1387 38.1447 0
378 1 20.468 63.7574 0
379 1 13.8857 20.2368 0
380 1 9.84027 62.478 0
381 1 26.6853 23.2946 0
382 1 30.6595 23.6678 0
383 1 9.56317 11.8219 0
384 1 34.9014 51.7106 0
385 1 28.4357 77.1212 0
386 1 54.8404 40.3955 0
387 1 59.5995 76.6692 0
388 2 55.9313 57.7501 0
389 1 24.6686 56.6886 0
390 1 29.4608 12.9393 0
391 2 59.8626 26.7853 0
392 2 30.0979 10.1358 0
393 2 38.8385 65.0113 0
394 1 10.2485 73.7489 0
395 1 53.1541 21.9064 0
396 1 13.7707 70.4693 0
397 1 46.8263 17.189 0
398 1 45.538 70.852 0
399 1 70.0428 18.0755 0
400 1 59.8974 74.2474 0
401 1 44.6239 11.4735 0
402 2 56.5974 16.996 0
403 1 38.2319 51.6565 0
404 1 69.31 70.8315 0
405 2 73.8639 76.2282 0
406 1 34.229 19.1012 0
407 2 45.6967 21.7777 0
408 1 63.4927 30.4406 0
409 1 18.7026 61.3028 0
410 2 67.4716 16.7437 0
411 2 66.5386 36.5617 0
412 1 58.8692 38.6699 0
413 1 7.05169 36.6303 0
414 1 71.3058 48.1997 0
415 1 7.05213 41.5631 0
416 2 73.7343 62.3155 0
417 2 75.1372 12.72 0
418 1 54.2571 30.0491 0
419 2 56.5943 47.2038 0
420 2 24.8295 55.8479 0
421 1 60.2947 19.4148 0
422 1 2.03757 71.3861 0
423 1 4.15636 12.0188 0
424 1 60.7508 26.9942 0
425 1 58.8104 50.4648 0
426 1 56.1477 73.7553 0
427 2 39.5494 14.8749 0
428 1 51.4834 50.2204 0
429 1 59.1337 71.0739 0
430 1 36.6513 37.1352 0
431 1 0.0520792 29.5741 0
432 1 63.3416 49.0676 0
433 1 29.164 69.48 0
434 1 1.81832 42.8586 0
435 1 64.0247 34.2248 0
436 2 67.9547 39.0167 0
437 2 43.8626 59.4762 0
438 1 38.9316 61.7641 0
439 2 41.2649 12.5828 0
440 1 43.3703 43.6938 0
441 2 66.6765 15.2597 0
442 1 9.61252 37.9481 0
443 1 54.6088 16.8446 0
444 1 16.7406 75.3938 0
445 2 69.4202 67.4979 0
446 1 61.636 42.2125 0
447 1 27.0244 70.8546 0
448 1 46.9472 37.6761 0
449 1 37.1962 73.312 0
450 2 48.1475 59.7119 0
451 2 6.57549 61.6783 0
452 1 66.6628 11.2145 0
453 1 28.6834 76.0559 0
454 2 62.6559 29.985 0
455 2 26.5545 67.9088 0
456 1 11.4092 44.577 0
457 2 18.4998 1.8332 0
458 1 38.0271 77.1435 0
459 2 15.6104 56.76 0
460 1 5.43797 4.22163 0
461 2 27.1833 27.0287 0
462 1 45.7813 24.3128 0
463 1 75.8969 69.7024 0
464 1 9.14306 47.896 0
465 2 40.663 45.1298 0
466 1 21.737 12.8837 0
467 2 11.5866 1.34885 0
468 1 19.3906 36.3381 0
469 1 1.90935 2.14662 0
470 1 61.8541 10.495 0
471 2 73.9049 40.8957 0
472 1 25.5104 43.0677 0
473 1 61.6096 65.8812 0
474 1 33.4989 54.6609 0
475 1 22.5387 59.7829 0
476 2 38.9141 32.0442 0
477 1 60.6592 11.664 0
478 2 33.1864 74.4814 0
479 1 33.3621 22.2506 0
480 1 19.8856 25.6951 0
481 1 7.14072 18.576 0
482 1 10.9364 25.2041 0
483 2 1.11444 1.67409 0
484 1 14.3832 38.3242 0
485 1 21.3494 57.1918 0
486 1 7.12484 4.65604 0
487 2 70.9513 10.3803 0
488 1 59.0749 5.46989 0
489 1 52.3904 15.1985 0
490 1 35.4448 31.1144 0
491 1 30.556 42.5896 0
492 2 61.244 9.87653 0
493 1 73.3615 8.9285 0
494 1 67.5656 32.0037 0
495 2 22.5204 49.2113 0
496 2 52.7204 42.136 0
497 2 40.6959 6.86557 0
498 1 23.5235 25.9188 0
499 1 35.858 74.4314 0
500 1 2.68065 4.13517 0
501 2 45.3885 43.4623 0
502 1 16.731 24.7949 0
503 1 50.2746 9.82778 0
504 1 37.0077 32.7631 0
505 2 26.5514 77.0838 0
506 2 17.5791 65.2002 0
507 1 41.9941 37.3484 0
508 1 12.9369 32.8158 0
509 1 28.8999 24.8395 0
510 1 7.0054 38.7546 0
511 1 69.2618 26.6719 0
512 1 54.4965 53.3575 0
513 1 11.8263 34.2228 0
514 1 25.3491 64.3891 0
515 2 61.4338 11.2875 0
516 2 11.4147 38.6451 0
517 2 74.5087 74.5706 0
518 2 19.1821 54.2667 0
519 2 33.2786 1.89213 0
520 1 74.4206 37.1184 0
521 1 42.0752 24.4913 0
522 2 24.4441 66.135 0
523 1 77.2577 12.2342 0
524 1 70.4726 34.6714 0
525 1 22.8133 0.0212611 0
526 2 76.5459 22.3673 0
527 1 49.4551 26.1605 0
528 2 74.5094 5.08121 0
529 2 35.1899 45.2691 0
530 1 7.87383 59.5217 0
531 2 76.398 68.9741 0
532 2 32.223 60.9048 0
533 1 72.8301 5.39958 0
534 1 34.461 27.0903 0
535 1 29.0789 19.1651 0
536 1 32.6392 65.8642 0
537 1 35.0621 47.8678 0
538 2 16.4194 21.6325 0
539 2 46.0744 76.8787 0
540 1 60.8638 40.6754 0
541 2 25.0037 8.05954 0
542 1 51.2081 56.8022 0
543 2 69.6461 55.5647 0
544 2 51.9965 10.4777 0
545 1 28.2947 22.8254 0
546 1 34.3376 3.21738 0
547 1 10.1561 14.4059 0
548 2 23.6477 3.15045 0
549 2 65.3924 21.8626 0
550 2 5.18191 39.424 0
551 1 30.4277 8.2882 0
552 2 70.5196 40.28 0
553 2 29.4495 44.9622 0
554 1 51.6937 62.2784 0
555 1 50.2547 57.2847 0
556 1 73.0627 68.0283 0
557 1 62.0176 53.9315 0
558 1 2.60339 68.5054 0
559 1 72.6166 36.1578 0
560 2 21.4656 61.5147 0
561 1 5.6611 0.629885 0
562 2 4.4875 11.1805 0
563 2 54.0361 48.7813 0
564 1 70.1546 68.09 0
565 2 21.8002 1.41776 0
566 2 18.1212 23.8161 0
567 1 48.8602 42.1295 0
568 2 22.8232 74.1261 0
569 2 15.6856 27.4987 0
570 1 73.1439 34.1689 0
571 1 0.463086 3.52004 0
572 2 6.71439 48.4669 0
573 2 77.4276 44.8747 0
574 1 3.83824 69.0656 0
575 1 18.2834 7.6937 0
576 1 16.4654 63.1332 0
577 1 43.31 50.495 0
578 2 67.5853 34.1874 0
579 2 45.9148 69.1264 0
580 1 62.6793 42.6101 0
581 1 6.66469 60.732 0
582 2 68.6627 59.5963 0
583 2 64.0698 58.6139 0
584 2 33.4549 65.5403 0
585 1 61.0551 77.4039 0
586 1 48.6946 58.6894 0
587 2 14.6704 21.7252 0
588 1 49.6628 5.25534 0
589 2 53.7293 10.2921 0
590 1 24.6471 73.5152 0
591 1 56.4376 6.50948 0
592 1 48.6566 74.3065 0
593 1 44.0932 13.0798 0
594 1 59.8503 63.3364 0
595 1 72.2045 65.3854 0
596 2 7.14758 1.25558 0
597 1 3.50328 43.9934 0
598 1 69.0587 9.19207 0
599 1 2.70241 50.9852 0
600 1 0.218723 47.5508 0
601 2 42.1007 36.0759 0
602 1 62.2574 14.4031 0
603 2 71.1452 50.7774 0
604 2 62.3302 16.5332 0
605 1 52.4104 69.2727 0
606 1 41.5957 4.10082 0
607 1 76.2918 1.32744 0
608 2 1.35894 40.3002 0
609 2 40.8879 0.439914 0
610 1 7.83604 49.7406 0
611 1 53.8489 58.7504 0
612 1 76.736 6.23652 0
613 1 76.9673 23.1656 0
614 2 50.4426 28.497 0
615 1 34.5617 38.844 0
616 1 39.7735 16.1035 0
617 1 69.0944 2.63778 0
618 2 11.9932 42.7254 0
619 2 55.1959 42.3265 0
620 2 70.9402 73.8787 0
621 2 58.4747 35.7562 0
622 1 60.2119 18.2596 0
623 1 37.4924 11.3231 0
624 2 20.4653 54.8428 0
625 1 26.9862 76.318 0
626 1 73.7591 29.1066 0
627 2 2.29464 25.0637 0
628 1 28.7574 58.0918 0
629 2 77.3931 25.5395 0
630 1 29.1579 73.0773 0
631 1 56.8103 37.1463 0
632 1 21.6348 65.0485 0
633 2 25.5652 72.0358 0
634 1 18.8014 50.6892 0
635 2 41.4327 43.66 0
636 2 37.0462 40.7744 0
637 1 11.1485 11.0479 0
638 1 67.3119 40.8085 0
639 1 70.2387 46.2822 0
640 1 0.135663 53.9409 0
641 1 36.4205 33.6764 0
642 1 9.67355 33.8329 0
643 1 50.2037 44.7409 0
644 2 19.3027 27.3046 0
645 1 56.9346 52.2937 0
646 1 46.2472 47.1033 0
647 2 23.6503 10.4906 0
648 1 64.3291 12.4593 0
649 2 10.7489 69.1353 0
650 2 47.1612 61.9827 0
651 1 46.1669 12.1943 0
652 1 29.6177 70.932 0
653 2 13.6246 23.1506 0
654 2 10.3334 3.74793 0
655 1 5.54334 51.7499 0
656 1 72.8388 53.8122 0
657 1 33.7278 46.6034 0
658 1 71.6344 13.2125 0
659 2 0.875227 66.2005 0
660 1 26.7702 35.6584 0
661 1 37.3641 9.87005 0
662 1 32.7948 60.0671 0
663 1 10.6274 28.6859 0
664 1 58.4597 75.3939 0
665 2 49.2796 76.9593 0
666 2 12.8074 58.2291 0
667 1 26.3613 73.7751 0
668 2 7.78849 76.1739 0
669 1 4.36643 9.22655 0
670 2 43.9467 37.707 0
671 2 37.3132 17.5207 0
672 1 9.95179 19.6503 0
673 1 6.8763 16.6235 0
674 1 32.6589 42.6221 0
675 2 4.89706 58.1047 0
676 2 38.0275 6.31449 0
677 1 41.3351 54.0964 0
678 1 53.693 39.0785 0
679 1 46.6862 69.5775 0
680 1 31.7182 53.6162 0
681 1 26.3587 54.1041 0
682 1 62.4157 59.5278 0
683 1 18.0992 59.3272 0
684 1 64.4075 68.932 0
685 2 35.923 18.7006 0
686 1 50.3856 6.20355 0
687 1 41.5818 18.8732 0
688 2 53.5973 73.6599 0
689 1 72.0028 62.4122 0
690 1 66.0798 72.2243 0
691 1 41.7757 39.9727 0
692 2 59.8976 44.0527 0
693 1 71.3702 76.8791 0
694 2 53.7317 64.2754 0
695 1 42.336 11.7822 0
696 2 35.5952 47.1409 0
697 1 25.6329 13.3181 0
698 1 8.38094 3.45341 0
699 1 66.7248 13.936 0
700 1 72.0077 46.9154 0
701 1 64.1135 31.3124 0
702 1 63.618 65.3141 0
703 2 71.982 2.18942 0
704 2 8.30367 61.3197 0
705 2 4.90731 7.22686 0
706 1 52.2254 51.7236 0
707 2 59.7107 38.488 0
708 1 50.3418 43.0748 0
709 1 51.6831 73.238 0
710 2 60.328 28.5909 0
711 1 55.9547 54.1408 0
712 2 62.7725 32.7533 0
713 2 68.3941 70.4358 0
714 2 0.663994 64.8707 0
715 1 45.2693 18.8606 0
716 1 76.4774 29.8844 0
717 1 29.7943 63.4675 0
718 1 14.2678 3.68391 0
719 1 53.2582 36.9289 0
720 2 49.1383 38.4628 0
721 2 66.7775 39.7915 0
722 1 49.1001 7.95523 0
723 2 39.9616 75.3542 0
724 2 10.4232 59.5212 0
725 1 50.6858 39.1631 0
726 1 8.26083 29.9703 0
727 2 12.8965 1.47184 0
728 1 67.4482 55.5599 0
729 2 21.6621 59.7294 0
730 1 32.7724 27.4549 0
731 2 16.7022 36.4638 0
732 1 16.4075 54.3309 0
733 1 29.8261 29.5066 0
734 2 66.4306 46.3974 0
735 1 66.7429 67.2018 0
736 1 47.8271 49.4088 0
737 2 4.13042 45.7609 0
738 1 13.6958 34.4793 0
739 1 18.0272 37.576 0
740 1 48.4406 37.94 0
741 2 57.2235 55.6903 0
742 1 58.9016 37.6346 0
743 1 27.1981 62.1694 0
744 2 72.8007 19.0727 0
745 1 23.1144 72.6995 0
746 1 35.1182 10.2242 0
747 1 47.6053 76.1386 0
748 2 43.1593 70.004 0
749 2 22.3143 24.4672 0
750 1 55.2983 35.0332 0
751 1 57.7277 40.1858 0
752 2 2.42781 70.4792 0
753 1 52.9704 39.8417 0
754 2 21.6805 15.2198 0
755 1 24.058 49.9818 0
756 2 49.4906 75.9658 0
757 1 48.4158 19.4063 0
758 1 6.01169 9.74924 0
759 1 61.7179 47.1204 0
760 1 12.1371 10.4503 0
761 1 69.8993 71.7032 0
762 1 15.2666 57.5457 0
763 2 77.1598 6.9986 0
764 1 75.1113 57.0433 0
765 2 47.0553 56.7355 0
766 1 63.2092 22.728 0
767 1 13.6926 1.13366 0
768 1 65.4063 8.0571 0
769 1 61.7396 50.0604 0
770 2 60.5054 73.6072 0
771 1 18.8712 40.0262 0
772 1 44.8977 51.0999 0
773 1 40.6822 43.2097 0
774 2 32.6326 25.6545 0
775 1 71.6449 30.6045 0
776 2 43.618 42.8495 0
777 1 70.463 55.2719 0
778 2 10.4832 63.0883 0
779 1 45.2114 25.2366 0
780 1 17.0649 6.23073 0
781 1 29.6005 35.1612 0
782 1 57.4545 64.8127 0
783 1 60.5787 35.5787 0
784 1 70.7508 49.9587 0
785 2 8.82459 11.3041 0
786 1 73.2181 70.1378 0
787 1 20.9435 66.5612 0
788 1 39.8142 54.8454 0
789 1 10.9671 4.38001 0
790 1 52.1819 70.3058 0
791 1 45.8368 13.2067 0
792 1 8.64494 25.0325 0
793 1 25.2067 14.9465 0
794 2 71.349 16.7329 0
795 2 75.6241 14.1563 0
796 2 75.613 67.8101 0
797 1 44.4918 65.378 0
798 1 38.4406 19.0435 0
799 1 44.3017 76.4921 0
800 1 30.5986 70.5071 0
801 2 6.47657 25.9605 0
802 2 27.9932 45.5654 0
803 2 23.6251 77.1532 0
804 2 52.5628 36.025 0
805 1 23.8333 71.9298 0
806 1 53.0765 70.8837 0
807 2 39.7837 50.42 0
808 1 50.4382 47.1389 0
809 2 36.3529 62.5153 0
810 1 58.5167 76.5779 0
811 1 28.71 61.0592 0
812 2 59.5783 48.2661 0
813 2 46.1857 58.0951 0
814 1 54.2803 31.128 0
815 2 41.0994 17.0139 0
816 1 28.0265 34.4279 0
817 1 67.791 75.6396 0
818 2 36.839 16.1141 0
819 2 45.7077 56.7192 0
820 1 66.902 69.7749 0
821 1 16.7267 64.8353 0
822 1 56.8073 76.7873 0
823 1 17.1703 55.7473 0
824 2 35.3295 42.4349 0
825 1 29.1695 41.5945 0
826 1 32.8625 75.3368 0
827 1 7.3167 26.1648 0
828 1 76.8274 51.0765 0
829 1 72.0855 40.2355 0
830 2 47.8622 64.5404 0
831 2 43.3849 4.57192 0
832 1 73.9565 14.362 0
833 1 24.5048 43.3453 0
834 2 48.6266 5.61781 0
835 1 68.3726 6.56689 0
836 1 58.1163 27.6695 0
837 1 56.3136 41.209 0
838 1 38.9619 52.8605 0
839 1 16.1131 60.2887 0
840 2 15.771 46.7119 0
841 1 36.8615 52.6215 0
842 2 11.0823 61.1824 0
843 1 5.52678 42.374 0
844 1 63.456 21.6464 0
845 2 27.9197 2.25815 0
846 1 49.5277 39.2598 0
847 1 10.9696 57.6359 0
848 2 68.9944 47.6356 0
849 1 74.1108 10.9736 0
850 1 67.9705 19.6973 0
851 1 39.4477 18.6634 0
852 1 12.2101 1.99185 0
853 1 42.4325 61.5344 0
854 1 37.7328 69.6367 0
855 1 39.4869 25.6465 0
856 2 18.7322 42.0192 0
857 1 57.8041 33.9835 0
858 2 34.4269 28.8256 0
859 1 13.1515 64.7498 0
860 2 2.14321 58.4439 0
861 2 60.1615 40.1507 0
862 2 2.98883 69.2597 0
863 1 59.0028 23.8044 0
864 1 60.2723 53.7913 0
865 2 66.1215 68.021 0
866 1 60.4915 17.1982 0
867 2 31.5039 21.8376 0
868 1 37.1875 62.0027 0
869 1 62.1513 20.158 0
870 1 77.4492 52.6983 0
871 1 62.7429 26.1369 0
872 1 42.2912 50.7911 0
873 1 50.647 62.5861 0
874 1 3.97403 71.7327 0
875 1 34.1481 57.7847 0
876 2 51.6152 7.90296 0
877 1 13.3061 55.5387 0
878 2 14.7288 16.0034 0
879 1 76.5282 14.0687 0
880 2 31.7112 33.6018 0
881 2 51.8828 29.3612 0
882 2 48.0667 73.6247 0
883 1 25.7013 19.9893 0
884 1 55.9444 36.5404 0
885 1 38.9887 5.03064 0
886 1 37.0702 60.1396 0
887 2 54.715 50.2551 0
888 1 0.431547 76.5588 0
889 2 59.1374 49.6317 0
890 2 7.77683 25.3569 0
891 1 38.1958 10.5214 0
892 1 39.9966 67.9935 0
893 1 30.0351 53.694 0
894 1 77.0152 14.9782 0
895 2 32.3847 53.0445 0
896 1 37.6302 2.60254 0
897 2 35.6619 17.033 0
898 1 31.049 43.6489 0
899 1 2.08018 75.788 0
900 2 38.6572 0.276872 0
901 1 52.2749 41.3952 0
902 1 24.3304 75.2931 0
903 1 37.8915 40.5665 0
904 2 0.0866542 37.6301 0
905 1 63.7224 62.0725 0
906 1 68.9123 44.6964 0
907 1 3.70132 29.8203 0
908 1 50.7068 23.8573 0
909 1 0.368473 48.66 0
910 2 1.81729 50.7146 0
911 2 4.59888 4.54654 0
912 2 36.1438 32.8093 0
913 2 31.9407 51.6626 0
914 1 18.2767 12.8884 0
915 2 64.75 5.49045 0
916 1 3.40294 39.8284 0
917 2 4.93631 33.4781 0
918 2 19.5444 35.4487 0
919 1 8.2418 57.7425 0
920 1 15.9241 47.6492 0
921 1 0.0927705 26.6325 0
922 2 50.8138 18.9902 0
923 2 12.2974 24.2952 0
924 1 39.2891 17.6003 0
925 1 66.2085 47.2689 0
926 2 35.4494 35.3138 0
927 1 68.9579 77.4067 0
928 1 52.1177 59.0654 0
929 2 52.0632 32.1479 0
930 2 19.9841 15.8303 0
931 1 40.8276 47.5699 0
932 1 70.3395 39.0552 0
933 1 34.3571 21.8683 0
934 1 2.03295 60.1033 0
935 1 11.4157 50.5738 0
936 2 42.2558 4.68224 0
937 1 14.2675 73.128 0
938 1 36.6995 67.7085 0
939 2 50.4019 51.2644 0
940 1 75.9112 46.8022 0
941 1 77.2363 17.5822 0
942 1 37.9203 29.75 0
943 2 22.2593 16.6895 0
944 2 2.03714 41.971 0
945 1 40.4792 25.3068 0
946 1 64.5661 67.2052 0
947 2 25.1065 2.06059 0
948 1 39.2302 68.7407 0
949 1 26.8222 11.6164 0
950 2 5.0861 9.78738 0
951 1 68.9367 65.5737 0
952 2 52.6777 2.70889 0
953 2 7.85325 44.7911 0
954 2 29.9164 62.5871 0
955 1 27.2699 38.5019 0
956 2 58.861 10.9861 0
957 1 48.3315 23.6204 0
958 2 19.4615 2.8282 0
959 2 73.6112 25.0722 0
960 2 29.1529 66.9003 0
961 1 49.4843 52.0952 0
962 1 24.3299 1.56068 0
963 1 16.2594 12.5577 0
964 2 8.58378 9.57535 0
965 2 53.6767 53.7812 0
966 1 0.741469 62.8014 0
967 1 49.8056 35.5597 0
968 1 18.3698 0.0862748 0
969 1 58.0294 23.4079 0
970 2 22.5317 4.69739 0
971 1 21.2118 14.4742 0
972 1 6.85261 25.156 0
973 1 0.941175 35.8796 0
974 2 1.03141 35.0154 0
975 2 73.0865 65.3343 0
976 2 34.6197 19.9019 0
977 1 36.0105 63.3373 0
978 2 3.18435 77.0294 0
979 2 36.1359 65.8345 0
980 1 72.9076 14.2701 0
981 1 73.7488 58.0522 0
982 1 7.89344 54.6974 0
983 1 18.4456 24.6444 0
984 1 9.311 57.9357 0
985 1 34.5884 11.1634 0
986 1 37.9098 52.6635 0
987 2 18.0998 12.0364 0
988 2 42.1578 34.8749 0
989 2 9.89815 34.7418 0
990 2 69.9761 51.7253 0
991 2 46.3031 14.7925 0
992 1 62.3525 34.6148 0
993 2 29.1306 5.79038 0
994 2 1.90875 54.9453 0
995 1 38.9055 22.3161 0
996 2 54.6741 56.9495 0
997 2 43.494 30.8381 0
998 2 60.4198 74.964 0
999 2 39.2832 26.5189 0
1000 2 0.507994 49.5269 0
1001 1 41.8412 65.4137 0
1002 1 23.474 34.4167 0
1003 1 9.60995 54.2098 0
1004 1 7.59659 22.4675 0
1005 2 10.795 23.6736 0
1006 2 67.8178 60.8537 0
1007 1 18.8673 20.3061 0
1008 1 47.8503 16.8925 0
1009 1 31.0923 32.9831 0
1010 1 11.5638 43.5013 0
1011 2 10.5162 22.2718 0
1012 2 2.31147 23.306 0
1013 2 65.1196 55.9428 0
1014 1 74.1529 15.4825 0
1015 1 76.0775 9.38143 0
1016 1 37.1853 48.0029 0
1017 2 68.8175 54.2698 0
1018 1 26.197 24.9779 0
1019 1 44.323 29.0144 0
1020 2 32.557 6.25971 0
1021 2 15.9304 24.49 0
1022 1 4.88095 60.8307 0
1023 1 41.1186 9.33414 0
1024 1 9.2981 67.7982 0
1025 1 37.0908 65.8777 0
1026 1 7.98406 40.1428 0
1027 1 47.538 2.51198 0
1028 1 1.94054 32.9461 0
1029 1 49.0364 18.1576 0
1030 2 46.8098 48.0085 0
1031 2 37.5428 37.028 0
1032 1 16.3966 73.1267 0
1033 1 57.6295 19.2639 0
1034 1 35.2499 29.1946 0
1035 1 65.8285 28.3775 0
1036 2 73.6345 45.8748 0
1037 1 31.174 73.0886 0
1038 1 68.6276 60.4655 0
1039 1 5.49508 31.896 0
1040 2 64.9238 34.2647 0
1041 1 35.4399 65.2641 0
1042 2 62.7675 68.1365 0
1043 2 60.6198 58.1894 0
1044 1 67.7197 23.4721 0
1045 1 66.6977 23.2428 0
1046 1 41.1361 68.2428 0
1047 2 9.9952 47.6996 0
1048 1 53.5393 77.4587 0
1049 1 59.8397 49.0928 0
1050 2 45.5078 6.37596 0
1051 1 43.4699 31.7619 0
1052 1 66.2013 44.4716 0
1053 2 32.6615 18.4469 0
1054 1 55.2257 7.16556 0
1055 2 32.8399 46.6539 0
1056 2 14.7024 45.24 0
1057 1 12.0095 71.6672 0
1058 1 27.4546 5.86978 0
1059 1 9.25262 75.263 0
1060 2 21.8977 42.0443 0
1061 1 10.0886 23.1593 0
1062 2 16.9327 41.4365 0
1063 1 0.0145263 67.8175 0
1064 1 23.3184 5.13086 0
1065 2 29.7354 52.8659 0
1066 1 37.3659 46.3035 0
1067 1 13.9274 10.3523 0
1068 2 35.6284 67.1566 0
1069 1 67.9024 24.4911 0
1070 2 8.17198 34.4597 0
1071 2 49.5042 42.8022 0
1072 2 9.44254 48.7091 0
1073 2 16.3502 3.57185 0
1074 2 33.772 45.3225 0
1075 1 75.9354 49.6792 0
1076 1 41.2585 7.5559 0
1077 1 41.7082 32.644 0
1078 2 71.6664 26.2883 0
1079 2 39.0629 10.8649 0
1080 2 29.9932 72.8156 0
1081 2 45.9119 49.0165 0
1082 2 6.31619 27.6415 0
1083 2 21.5671 20.0034 0
1084 1 44.219 57.5834 0
1085 1 19.184 52.3685 0
1086 1 70.1602 66.9717 0
1087 1 29.5588 72.0219 0
1088 1 44.6869 63.0441 0
1089 2 8.44811 31.6732 0
1090 1 42.9138 34.4395 0
1091 2 27.6511 17.7748 0
1092 1 63.0872 53.5882 0
1093 1 69.0723 32.9523 0
1094 2 43.5374 55.2136 0
1095 1 25.3625 71.1673 0
1096 2 48.2301 18.5541 0
1097 1 76.1992 17.7594 0
1098 1 62.6568 43.7415 0
1099 1 31.1226 4.99101 0
1100 1 68.4225 1.78868 0
1101 1 74.9175 11.8515 0
1102 1 26.062 74.8327 0
1103 1 51.3649 70.9892 0
1104 1 47.0632 58.076 0
1105 1 48.225 40.1095 0
1106 1 16.4874 71.4215 0
1107 2 45.2052 62.3269 0
1108 1 55.5696 31.2361 0
1109 1 72.747 24.9235 0
1110 2 14.8464 11.7864 0
1111 1 2.68663 56.8207 0
1112 1 76.1571 18.7942 0
1113 2 75.4646 7.692 0
1114 2 14.2714 53.5186 0
1115 2 32.933 49.4587 0
1116 1 77.2378 64.6917 0
1117 1 66.8981 56.4409 0
1118 1 12.3698 75.4636 0
1119 2 11.2898 64.2518 0
1120 1 41.3889 58.0483 0
1121 2 21.2517 64.2518 0
1122 1 32.0539 32.4906 0
1123 2 23.0245 51.9187 0
1124 1 52.7159 61.9254 0
1125 2 14.7779 4.37854 0
1126 2 15.5013 20.1079 0
1127 1 74.593 24.0503 0
1128 1 67.2295 52.0468 0
1129 1 60.8568 39.6098 0
1130 1 30.5312 47.313 0
1131 1 62.5496 15.4177 0
1132 2 75.9212 63.6395 0
1133 2 55.9505 22.5352 0
1134 2 20.8512 72.1113 0
1135 1 0.889888 68.4576 0
1136 2 51.2298 26.9093 0
1137 1 51.0187 61.484 0
1138 1 30.3757 13.6831 0
1139 2 57.5704 52.9196 0
1140 2 9.086 22.9132 0
1141 1 74.9645 65.634 0
1142 1 26.9921 52.3156 0
1143 1 48.0806 44.7305 0
1144 2 60.9419 16.4427 0
1145 1 38.0771 62.6715 0
1146 1 15.5361 18.869 0
1147 1 28.2697 25.6519 0
1148 1 10.8572 36.7206 0
1149 1 57.5074 29.3204 0
1150 2 65.4149 61.1279 0
1151 1 22.1085 3.92061 0
1152 1 59.7635 51.9953 0
1153 1 71.6636 29.549 0
1154 1 13.9322 4.71841 0
1155 2 60.1507 20.3054 0
1156 1 44.4803 32.192 0
1157 1 12.3591 18.1475 0
1158 2 58.3163 47.9194 0
1159 2 5.49539 70.5049 0
1160 1 33.0189 7.77612 0
1161 2 43.9725 56.6614 0
1162 1 15.9294 9.8871 0
1163 2 13.4014 72.9641 0
1164 1 24.0366 58.8627 0
1165 1 20.9173 45.5356 0
1166 2 15.0397 50.6358 0
1167 1 27.9909 20.3075 0
1168 1 56.3868 64.6738 0
1169 1 19.537 66.8037 0
1170 2 6.29829 33.6547 0
1171 1 48.4839 33.8123 0
1172 1 22.9212 6.8339 0
1173 1 51.723 64.0107 0
1174 1 38.8474 29.2577 0
1175 2 62.5668 44.652 0
1176 1 68.2738 36.4652 0
1177 1 48.5123 69.9691 0
1178 2 61.0585 47.6743 0
1179 1 72.3542 32.6656 0
1180 1 52.0673 17.886 0
1181 1 54.2872 22.8978 0
1182 1 61.0275 74.3065 0
1183 2 43.1797 73.433 0
1184 2 28.1077 21.9791 0
1185 1 17.5408 63.227 0
1186 1 48.917 49.4594 0
1187 1 73.9289 72.1888 0
1188 2 4.80682 37.7142 0
1189 1 60.7669 65.2604 0
1190 1 28.354 51.4782 0
1191 2 72.2244 4.80314 0
1192 1 24.5784 47.0086 0
1193 1 47.62 17.9428 0
1194 2 16.553 16.0432 0
1195 1 74.2455 48.8734 0
1196 1 21.8657 49.8147 0
1197 1 35.5953 38.9507 0
1198 1 62.4897 76.4529 0
1199 2 57.8103 62.4794 0
1200 1 27.0026 8.84691 0
1201 1 2.9427 73.2463 0
1202 1 5.89713 48.8578 0
1203 2 47.5711 12.3943 0
1204 1 57.4695 56.6031 0
1205 1 66.6981 50.2963 0
1206 1 52.3083 5.1032 0
1207 1 31.833 62.7928 0
1208 1 75.4729 58.0627 0
1209 2 65.3136 59.6835 0
1210 1 69.6777 32.0126 0
1211 2 24.8286 35.4727 0
1212 1 33.7217 36.2356 0
1213 1 61.2361 68.9151 0
1214 1 61.5999 23.7205 0
1215 1 11.6767 72.7196 0
1216 1 11.245 49.482 0
1217 2 67.5674 2.05372 0
1218 2 61.5164 20.9401 0
1219 1 30.2356 15.4205 0
1220 1 61.9501 18.063 0
1221 1 61.5947 54.9058 0
1222 2 66.3241 74.3634 0
1223 1 42.2984 48.0914 0
1224 1 0.741521 34.1792 0
1225 1 2.8572 25.741 0
1226 2 65.871 64.8921 0
1227 1 41.5184 56.9944 0
1228 1 76.2033 70.7272 0
1229 2 48.0308 9.28837 0
1230 1 25.5215 49.7677 0
1231 2 53.0001 18.0489 0
1232 1 67.744 38.1282 0
1233 1 38.6245 58.5947 0
1234 1 1.77588 67.842 0
1235 1 18.1408 46.0465 0
1236 1 52.3362 63.0966 0
1237 1 37.912 20.6544 0
1238 1 24.7987 7.16458 0
1239 1 12.892 22.7138 0
1240 1 24.4458 62.957 0
1241 1 76.2455 62.809 0