ITEM: TIMESTEP
0
ITEM: NUMBER OF ATOMS
7200
ITEM: BOX BOUNDS xy xz yz pp pp pp
0.0000000000000000e+00 7.7459666924100006e+01 0.0000000000000000e+00
0.0000000000000000e+00 7.7459666924100006e+01 0.0000000000000000e+00
-1.2909944490000000e-01 1.2909944490000000e-01 0.0000000000000000e+00
ITEM: ATOMS id type x y z
1 1 12.1064 20.1498 0
2 1 14.9056 63.9761 0
3 1 75.1827 70.8605 0
4 1 20.4624 7.99614 0
5 1 34.695 56.1899 0
6 1 56.6723 28.5859 0
7 2 5.26832 3.09998 0
8 2 64.728 46.4332 0
9 1 42.2164 56.3075 0
10 2 19.1138 14.578 0
11 2 25.4239 53.0972 0
12 1 55.1221 11.548 0
13 2 23.3921 5.90008 0
14 1 46.613 70.0401 0
15 1 39.3882 31.4159 0
16 1 18.2514 14.7883 0
17 1 31.518 40.1328 0
18 1 33.8266 5.84343 0
19 1 26.9354 57.8032 0
20 2 44.8112 3.63819 0
21 1 12.2667 65.8731 0
22 1 54.2924 10.8399 0
23 1 75.5337 45.6738 0
24 1 55.9727 66.3728 0
25 1 6.69526 70.9991 0
26 1 21.1216 67.5581 0
27 2 28.8854 63.7722 0
28 1 51.2713 74.073 0
29 2 22.4091 48.0939 0
30 2 25.347 32.0099 0
31 1 15.4357 53.8026 0
32 1 50.9538 38.0288 0
33 1 60.6062 48.3868 0
34 2 45.3519 9.63703 0
35 1 75.1254 63.113 0
36 1 30.5136 59.9693 0
37 1 22.3538 61.3946 0
38 1 45.829 19.8638 0
39 1 22.5046 5.76955 0
40 2 24.828 59.1382 0
41 2 18.5046 64.6973 0
42 1 20.9748 1.24574 0
43 1 18.8789 33.5731 0
44 1 34.2765 62.7235 0
45 1 3.40175 34.4824 0
46 1 68.1398 7.63104 0
47 1 73.5219 59.0295 0
48 1 44.0319 68.2785 0
49 2 77.3314 4.09549 0
50 1 31.0303 66.7689 0
51 1 1.22896 9.94534 0
52 2 33.0878 24.1339 0
53 1 53.5274 18.6867 0
54 1 49.665 30.3236 0
55 1 9.73738 1.11532 0
56 1 45.9351 26.1941 0
57 1 67.5019 43.0611 0
58 1 69.8914 69.1209 0
59 1 34.2128 2.08937 0
60 1 28.7113 3.33327 0
61 1 40.476 75.8816 0
62 1 52.155 45.0374 0
63 1 57.1725 9.94204 0
64 1 50.6505 45.8114 0
65 1 66.9561 73.485 0
66 2 55.9831 11.4978 0
67 2 40.7546 36.1035 0
68 2 0.897988 29.0015 0
69 1 61.9565 45.4147 0
70 1 8.5589 35.5662 0
71 2 7.76834 42.0053 0
72 1 76.9034 3.33588 0
73 1 6.12223 64.1924 0
74 2 41.5397 22.939 0
75 1 75.4588 53.2272 0
76 1 19.6975 47.0736 0
77 1 24.9971 74.4745 0
78 1 3.64856 15.4816 0
79 1 12.5884 73.337 0
80 1 43.5262 16.6135 0
81 1 55.1363 62.3085 0
82 2 44.392 16.6101 0
83 1 5.91931 33.0202 0
84 1 33.1114 45.9286 0
85 1 34.7081 20.7539 0
86 2 34.566 64.7844 0
87 1 71.6284 34.6821 0
88 1 18.4937 54.7753 0
89 1 27.8069 13.0814 0
90 1 37.4925 38.1295 0
91 2 45.9739 41.2215 0
92 2 41.3878 56.28 0
93 1 27.7993 16.8912 0
94 1 33.3419 55.774 0
95 2 39.8389 56.9693 0
96 1 65.1941 1.31013 0
97 1 44.2615 49.1395 0
98 2 2.87604 60.0485 0
99 1 61.7966 48.1332 0
100 2 32.463 30.8947 0
101 1 47.8174 54.3966 0
102 1 56.0638 21.6681 0
103 1 56.6909 70.4916 0
104 1 2.68846 60.8985 0
105 2 40.0565 3.08463 0
106 2 30.4634 34.8081 0
107 1 13.1578 31.3293 0
108 1 0.780208 0.743294 0
109 1 35.7682 41.9166 0
110 2 65.1851 25.5548 0
111 1 65.938 12.0008 0
112 1 34.1228 72.8016 0
113 2 0.254364 60.3362 0
114 2 74.6186 29.3554 0
115 2 30.3884 12.7877 0
116 2 74.6252 53.4502 0
117 1 16.2361 45.9236 0
118 2 46.75 26.5712 0
119 1 62.605 0.246255 0
120 2 5.92121 49.7962 0
121 1 6.05304 3.48833 0
122 1 19.6402 32.8426 0
123 2 5.32037 17.5825 0
124 1 46.5412 57.2228 0
125 1 31.6473 27.2587 0
126 1 58.1411 52.1759 0
127 1 4.4967 58.9709 0
128 1 14.4229 23.4295 0
129 1 16.5047 52.3157 0
130 1 7.1636 2.11881 0
131 1 58.9661 24.9198 0
132 2 31.1679 41.9804 0
133 2 52.4997 6.91624 0
134 1 65.7125 50.8172 0
135 1 31.636 30.4475 0
136 2 55.0655 46.5704 0
137 1 61.7997 56.7106 0
138 2 70.5409 47.9415 0
139 1 68.3595 27.2541 0
140 1 3.36271 21.8575 0
141 2 48.1395 63.5352 0
142 1 6.48053 22.5384 0
143 2 40.5295 70.1233 0
144 2 47.3506 75.1841 0
145 2 18.3277 52.9801 0
146 1 54.8379 4.11185 0
147 1 9.37147 38.946 0
148 1 46.4116 53.3925 0
149 2 67.9607 49.1215 0
150 1 32.767 56.654 0
151 2 29.5203 13.8561 0
152 1 48.9188 63.1505 0
153 2 17.3809 46.4726 0
154 2 31.4957 72.1952 0
155 1 70.5821 48.9008 0
156 1 43.5178 10.2123 0
157 1 49.0963 71.1587 0
158 1 60.2176 69.2425 0
159 2 10.4744 25.9878 0
160 1 38.2323 17.4946 0
161 1 7.13472 63.5535 0
162 2 72.655 24.0709 0
163 1 30.5441 27.1775 0
164 1 60.1637 29.4821 0
165 1 75.7482 27.7844 0
166 1 1.91397 44.793 0
167 1 39.1412 0.799994 0
168 1 38.4195 72.7897 0
169 1 56.8059 30.9733 0
170 1 57.3096 1.0193 0
171 2 36.8439 61.0526 0
172 2 33.7797 53.9081 0
173 2 43.8492 24.4575 0
174 2 27.4391 55.9269 0
175 2 31.1299 26.498 0
176 1 46.3181 16.3009 0
177 1 19.6176 58.6182 0
178 1 61.8914 61.3774 0
179 1 64.5774 24.8858 0
180 2 33.3609 39.788 0
181 1 45.1915 27.7125 0
182 1 61.8448 58.6603 0
183 2 12.2106 37.4311 0
184 1 5.12231 67.4663 0
185 2 67.2024 29.418 0
186 1 59.1218 35.0843 0
187 1 39.5611 46.5673 0
188 1 57.3449 47.732 0
189 2 63.7878 53.0486 0
190 1 23.4143 4.04407 0
191 1 71.686 8.04995 0
192 1 65.5043 10.311 0
193 2 11.0447 41.7205 0
194 2 68.6962 69.1168 0
195 1 11.1331 3.31633 0
196 2 49.6101 54.9706 0
197 2 20.2314 9.98957 0
198 1 13.4008 61.2344 0
199 2 75.7012 66.134 0
200 1 59.8546 27.7429 0
201 2 34.635 1.26271 0
202 2 74.5358 55.1524 0
203 1 52.4207 65.6675 0
204 1 29.6757 3.78087 0
205 1 56.0071 26.0917 0
206 2 35.7307 37.1527 0
207 2 14.0253 9.4931 0
208 1 33.7195 14.0668 0
209 1 12.2842 11.5538 0
210 2 5.35858 20.4038 0
211 1 17.2371 8.18531 0
212 2 24.9644 6.30003 0
213 2 56.0201 28.0134 0
214 1 70.9257 57.6721 0
215 2 67.071 22.5559 0
216 1 20.7672 73.6259 0
217 1 59.6352 34.1297 0
218 2 54.7549 58.5563 0
219 2 67.9889 42.3441 0
220 2 42.5624 63.8674 0
221 1 19.0343 45.3625 0
222 1 45.0162 12.4564 0
223 2 39.0909 67.6635 0
224 2 27.7168 68.5824 0
225 1 32.4269 23.5856 0
226 2 66.3891 57.1369 0
227 2 5.98824 16.2816 0
228 1 34.5394 9.3472 0
229 1 71.0339 26.9218 0
230 1 32.1322 74.5474 0
231 1 10.7643 34.2897 0
232 1 42.1402 12.8643 0
233 1 34.806 7.64408 0
234 1 76.018 8.30933 0
235 1 60.8244 59.2489 0
236 2 44.7798 70.3268 0
237 1 77.1292 62.1418 0
238 2 9.26648 21.3914 0
239 1 58.4284 2.83092 0
240 2 61.5854 46.2301 0
241 1 47.3361 66.7013 0
242 1 18.5062 30.5959 0
243 1 7.27584 56.2822 0
244 1 61.3269 64.3303 0
245 1 11.0923 30.8439 0
246 1 2.05781 35.4786 0
247 1 65.5651 49.8424 0
248 1 12.32 0.808866 0
249 2 50.2116 41.0129 0
250 1 29.1299 9.31974 0
251 2 57.8497 50.2134 0
252 2 65.6361 23.2036 0
253 1 19.8599 17.4925 0
254 1 54.3879 25.0768 0
255 1 65.5436 42.8925 0
256 1 31.3495 8.5221 0
257 1 22.1954 57.9179 0
258 1 26.138 38.8906 0
259 1 55.6204 56.8503 0
260 2 44.1376 53.7598 0
261 2 26.3941 62.6477 0
262 1 24.3829 33.6637 0
263 2 12.7155 34.7355 0
264 2 71.4317 59.7891 0
265 1 77.03 46.7568 0
266 1 38.1281 44.9156 0
267 2 61.5362 24.6079 0
268 2 56.6346 45.9684 0
269 1 48.0941 20.9965 0
270 2 9.14706 47.0687 0
271 2 22.7311 33.7552 0
272 2 20.4081 14.1082 0
273 1 15.0266 65.0538 0
274 1 32.3707 50.1427 0
275 1 8.60685 48.9357 0
276 1 75.2564 10.0364 0
277 2 15.6065 71.3673 0
278 1 7.60689 17.3998 0
279 1 4.52312 44.4291 0
280 1 20.4782 35.7232 0
281 1 30.6785 38.609 0
282 2 76.0167 26.407 0
283 1 76.4153 55.6997 0
284 2 54.2343 38.3098 0
285 1 71.0285 52.8228 0
286 1 11.3232 63.3805 0
287 1 19.0994 76.8552 0
288 2 75.8426 3.82699 0
289 2 21.547 39.1628 0
290 2 69.1563 76.3392 0
291 1 35.2334 22.5676 0
292 1 27.6379 58.5941 0
293 1 47.4185 18.9727 0
294 1 40.2637 2.20592 0
295 1 69.3694 2.94455 0
296 2 74.0485 8.28121 0
297 1 40.2776 59.7311 0
298 1 72.7594 35.0563 0
299 2 49.2317 36.4765 0
300 1 39.2633 43.9258 0
301 1 73.5652 19.6737 0
302 1 50.8195 35.2367 0
303 1 20.602 32.3324 0
304 1 60.5664 72.4655 0
305 2 59.1331 75.9487 0
306 1 63.1257 52.495 0
307 2 73.3914 38.834 0
308 1 41.638 5.23672 0
309 2 25.0171 16.8674 0
310 2 13.3832 12.939 0
311 1 29.4194 49.6124 0
312 1 67.329 61.6112 0
313 1 74.7193 76.2345 0
314 1 40.557 46.057 0
315 2 56.4216 31.8102 0
316 2 39.4217 63.1677 0
317 1 50.8885 20.41 0
318 2 7.03319 31.2158 0
319 1 30.9412 25.5153 0
320 1 36.0631 61.6632 0
321 1 58.6626 68.3871 0
322 2 73.9187 11.7318 0
323 2 25.0125 63.4468 0
324 1 64.3773 41.6277 0
325 1 41.2295 6.20415 0
326 1 9.65426 58.952 0
327 1 48.7685 54.7528 0
328 1 0.788827 36.9249 0
329 1 41.786 42.7118 0
330 2 51.7226 34.8773 0
331 2 69.6885 3.83405 0
332 1 59.4344 28.7283 0
333 1 37.0415 12.3003 0
334 1 17.2117 34.8395 0
335 1 20.7902 38.7449 0
336 2 72.312 74.5009 0
337 1 34.7035 33.7581 0
338 2 17.0158 1.49992 0
339 1 42.4086 68.4142 0
340 1 18.845 57.9334 0
341 2 74.0216 44.1638 0
342 1 67.0763 5.9627 0
343 2 56.5224 49.9916 0
344 2 22.7727 65.9153 0
345 1 8.01457 27.8391 0
346 1 17.4697 71.8121 0
347 1 35.5378 56.8812 0
348 1 56.4643 18.9636 0
349 1 33.6899 20.143 0
350 1 37.1881 31.247 0
351 1 18.0377 53.8295 0
352 1 47.8613 30.8245 0
353 1 75.405 25.7039 0
354 2 22.5699 26.2492 0
355 2 43.5292 18.1477 0
356 2 11.8192 2.75621 0
357 1 68.4667 67.5115 0
358 1 24.4054 3.74993 0
359 1 22.3062 14.6137 0
360 2 45.2031 31.3617 0
361 2 48.1883 67.0032 0
362 1 26.9284 74.5752 0
363 2 37.8624 73.52 0
364 1 13.105 66.4625 0
365 2 9.00361 57.1571 0
366 1 24.8705 50.5344 0
367 2 19.794 23.4387 0
368 2 51.4096 54.9719 0
369 2 65.3598 70.7772 0
370 1 3.47922 28.2772 0
371 1 46.0667 73.5637 0
372 2 40.3925 9.9832 0
373 1 10.4699 31.7627 0
374 2 66.5803 41.332 0
375 1 52.3414 52.7854 0
376 2 75.5025 43.1703 0
377 2 58.18 38.1232 0
378 1 20.4136 63.7716 0
379 1 13.8561 20.255 0
380 1 9.74059 62.4774 0
381 1 26.6423 23.2239 0
382 1 30.6257 23.7958 0
383 1 9.63223 11.6463 0
384 1 35.0694 51.751 0
385 1 28.4165 77.0692 0
386 1 55.0085 40.5847 0
387 1 59.4997 76.7997 0
388 2 55.9825 57.7782 0
389 1 24.6055 56.6354 0
390 1 29.5302 13.0216 0
391 2 59.6662 26.8566 0
392 2 30.0269 10.0979 0
393 2 38.7042 64.7801 0
394 1 10.2343 73.6664 0
395 1 53.0501 21.866 0
396 1 13.7568 70.3884 0
397 1 46.8484 17.2214 0
398 1 45.5634 70.8901 0
399 1 70.0106 18.1187 0
400 1 59.8281 74.1441 0
401 1 44.7008 11.4976 0
402 2 56.5817 17.0837 0
403 1 38.33 51.6855 0
404 1 69.4306 70.8361 0
405 2 73.8212 76.3199 0
406 1 34.2237 19.1418 0
407 2 45.7466 21.8432 0
408 1 63.5899 30.4544 0
409 1 18.5072 61.2675 0
410 2 67.4038 16.7809 0
411 2 66.5776 36.5547 0
412 1 58.8926 38.668 0
413 1 7.0253 36.5853 0
414 1 71.3856 48.1867 0
415 1 6.99954 41.6518 0
416 2 73.6998 62.2491 0
417 2 75.058 12.6361 0
418 1 54.377 30.0888 0
419 2 56.5748 47.2278 0
420 2 24.8768 55.7876 0
421 1 60.3165 19.3706 0
422 1 2.04673 71.4195 0
423 1 4.2121 11.9871 0
424 1 60.665 26.9686 0
425 1 58.9145 50.4653 0
426 1 56.0585 73.8196 0
427 2 39.6609 14.7744 0
428 1 51.5183 50.1893 0
429 1 59.1853 71.0263 0
430 1 36.5802 37.224 0
431 1 0.187757 29.544 0
432 1 63.2478 48.999 0
433 1 29.0352 69.4744 0
434 1 1.74886 42.8625 0
435 1 64.1595 34.1942 0
436 2 68 39.0223 0
437 2 44.1433 59.6152 0
438 1 38.887 61.4488 0
439 2 41.3104 12.4935 0
440 1 43.3801 43.7602 0
441 2 66.6358 15.1512 0
442 1 9.68005 37.9175 0
443 1 54.5557 16.7984 0
444 1 16.7442 75.3513 0
445 2 69.4722 67.543 0
446 1 61.6245 42.2177 0
447 1 26.9295 70.8674 0
448 1 47.0138 37.7459 0
449 1 37.0175 73.251 0
450 2 48.3269 59.6011 0
451 2 6.51361 61.7099 0
452 1 66.6054 11.2163 0
453 1 28.615 76.0917 0
454 2 62.7278 30.0181 0
455 2 26.5176 67.9402 0
456 1 11.5914 44.4361 0
457 2 18.4958 1.83352 0
458 1 37.9527 76.998 0
459 2 15.5045 56.702 0
460 1 5.54967 4.46438 0
461 2 27.264 27.0968 0
462 1 45.8016 24.4338 0
463 1 75.8478 69.751 0
464 1 9.11699 47.9197 0
465 2 40.7544 45.2053 0
466 1 21.8183 12.7874 0
467 2 11.6478 1.29924 0
468 1 19.4843 36.2479 0
469 1 1.89588 2.10409 0
470 1 61.7305 10.5415 0
471 2 74.0856 40.8139 0
472 1 25.6251 43.0133 0
473 1 61.7582 65.8947 0
474 1 33.6377 54.7381 0
475 1 22.3624 59.7046 0
476 2 38.8791 32.1794 0
477 1 60.5891 11.6044 0
478 2 32.9987 74.4855 0
479 1 33.4861 22.2589 0
480 1 19.8883 25.626 0
481 1 7.07624 18.5578 0
482 1 10.8899 25.1894 0
483 2 1.03693 1.61113 0
484 1 14.5129 38.3222 0
485 1 21.2693 57.2821 0
486 1 7.20871 4.65511 0
487 2 70.8449 10.2714 0
488 1 58.8657 5.51188 0
489 1 52.3257 15.2053 0
490 1 35.4282 31.2277 0
491 1 30.6008 42.8217 0
492 2 61.1537 9.83651 0
493 1 73.3139 8.72781 0
494 1 67.6752 31.8842 0
495 2 22.6129 49.1774 0
496 2 52.6505 42.1355 0
497 2 40.6818 6.89964 0
498 1 23.5147 25.8577 0
499 1 35.6925 74.4134 0
500 1 2.70557 4.11363 0
501 2 45.5227 43.5519 0
502 1 16.6859 24.8305 0
503 1 50.1542 9.72981 0
504 1 37.0703 32.9116 0
505 2 26.463 76.9673 0
506 2 17.5623 65.2749 0
507 1 42.0252 37.466 0
508 1 12.9615 32.7867 0
509 1 28.8952 24.811 0
510 1 7.16208 38.7558 0
511 1 69.2934 26.7547 0
512 1 54.5146 53.4361 0
513 1 11.9948 34.2223 0
514 1 25.283 64.3239 0
515 2 61.426 11.4258 0
516 2 11.4993 38.6719 0
517 2 74.1829 74.6435 0
518 2 19.3002 54.3569 0
519 2 33.27 1.9265 0
520 1 74.3997 37.1237 0
521 1 42.1402 24.5525 0
522 2 24.3242 66.1124 0
523 1 77.1654 12.2299 0
524 1 70.5457 34.538 0
525 1 22.7946 0.155191 0
526 2 76.4653 22.3044 0
527 1 49.5397 26.2044 0
528 2 74.6493 5.10158 0
529 2 35.309 45.4399 0
530 1 7.90092 59.6736 0
531 2 76.3177 68.9909 0
532 2 32.1497 60.8762 0
533 1 73.024 5.63368 0
534 1 34.5019 27.1794 0
535 1 29.1526 19.1529 0
536 1 32.595 65.8617 0
537 1 35.0722 48.0038 0
538 2 16.3636 21.5911 0
539 2 45.9355 76.8687 0
540 1 60.7934 40.7362 0
541 2 25.0957 8.10785 0
542 1 51.2759 56.8283 0
543 2 69.5864 55.4227 0
544 2 51.8753 10.4584 0
545 1 28.3044 22.7708 0
546 1 34.4166 3.18699 0
547 1 10.1367 14.3308 0
548 2 23.649 3.17526 0
549 2 65.2365 21.5715 0
550 2 5.25076 39.3847 0
551 1 30.323 8.18996 0
552 2 70.5822 40.3068 0
553 2 29.545 45.0264 0
554 1 51.6675 62.3166 0
555 1 50.4028 57.3531 0
556 1 72.94 67.8933 0
557 1 62.0966 53.9264 0
558 1 2.46389 68.476 0
559 1 72.5804 36.1714 0
560 2 21.4752 61.5352 0
561 1 5.63816 0.548549 0
562 2 4.52877 11.0718 0
563 2 53.9715 48.8296 0
564 1 70.2237 68.0461 0
565 2 21.8037 1.45475 0
566 2 18.1514 23.7333 0
567 1 48.8344 42.1914 0
568 2 22.8233 73.9855 0
569 2 15.708 27.4129 0
570 1 73.2109 34.1035 0
571 1 0.524268 3.42979 0
572 2 6.73798 48.5184 0
573 2 0.0386828 44.9763 0
574 1 3.8079 69.0078 0
575 1 18.3316 7.68142 0
576 1 16.3732 63.1095 0
577 1 43.452 50.5913 0
578 2 67.7664 34.222 0
579 2 45.9461 68.339 0
580 1 62.6399 42.6861 0
581 1 6.60109 60.8263 0
582 2 68.5659 59.5625 0
583 2 64.1397 58.6051 0
584 2 33.4059 65.5135 0
585 1 60.9267 0.0780671 0
586 1 48.7641 58.6768 0
587 2 14.6365 21.7252 0
588 1 49.4142 5.06626 0
589 2 53.6131 10.2654 0
590 1 24.6497 73.4625 0
591 1 56.2484 6.47773 0
592 1 48.5751 74.2954 0
593 1 44.0277 13.0494 0
594 1 59.9316 63.397 0
595 1 72.1548 65.3807 0
596 2 7.11246 1.19045 0
597 1 3.49034 44.0753 0
598 1 69.0051 9.12829 0
599 1 2.73994 50.8753 0
600 1 0.265431 47.5974 0
601 2 42.1299 36.1772 0
602 1 62.1924 14.3104 0
603 2 71.0397 50.8275 0
604 2 62.2602 16.5122 0
605 1 52.5189 69.1502 0
606 1 41.6065 3.98004 0
607 1 76.2013 1.34678 0
608 2 1.34102 40.3383 0
609 2 40.7548 0.41049 0
610 1 7.84176 49.6813 0
611 1 53.9371 58.7901 0
612 1 76.7914 6.21255 0
613 1 76.9848 23.0944 0
614 2 50.4887 28.5188 0
615 1 34.5466 38.9045 0
616 1 39.7453 16.1379 0
617 1 67.5577 1.70692 0
618 2 12.0693 42.5237 0
619 2 55.0071 42.6187 0
620 2 70.8818 74.0175 0
621 2 58.6077 35.731 0
622 1 60.2514 18.2199 0
623 1 37.3753 11.3215 0
624 2 20.5435 54.8931 0
625 1 26.9156 76.2458 0
626 1 73.7998 29.0962 0
627 2 2.48191 24.953 0
628 1 28.5829 58.0831 0
629 2 0.0461069 25.5396 0
630 1 29.134 73.0666 0
631 1 56.9168 37.0279 0
632 1 21.5858 65.029 0
633 2 25.5106 71.9137 0
634 1 18.7471 50.7487 0
635 2 41.5035 43.6994 0
636 2 37.0883 40.9218 0
637 1 11.2971 11.0665 0
638 1 67.3032 40.8305 0
639 1 70.3215 46.3096 0
640 1 0.268191 53.9545 0
641 1 36.4661 33.7866 0
642 1 9.76506 33.7652 0
643 1 50.3954 44.8029 0
644 2 19.3593 27.3109 0
645 1 57.1034 52.3952 0
646 1 46.2718 47.0909 0
647 2 23.8388 10.4935 0
648 1 64.301 12.4465 0
649 2 10.7733 69.0465 0
650 2 47.294 62.1141 0
651 1 46.1903 12.2162 0
652 1 29.6247 70.9601 0
653 2 13.5947 23.1822 0
654 2 10.317 3.70117 0
655 1 5.54827 51.8386 0
656 1 72.796 53.7971 0
657 1 33.7994 46.7344 0
658 1 71.5834 13.1484 0
659 2 0.781481 66.2208 0
660 1 26.7274 35.5118 0
661 1 37.2406 9.5975 0
662 1 32.7346 60.059 0
663 1 10.6098 28.6702 0
664 1 58.4604 75.4443 0
665 2 49.1576 76.8668 0
666 2 12.7428 58.2245 0
667 1 26.3134 73.7399 0
668 2 7.77566 76.1598 0
669 1 4.34956 9.0762 0
670 2 43.9764 37.7551 0
671 2 37.3702 17.6682 0
672 1 9.89954 19.5759 0
673 1 6.89533 16.5911 0
674 1 32.6331 42.7053 0
675 2 4.92368 58.1493 0
676 2 38.0128 6.29715 0
677 1 41.5092 54.3482 0
678 1 53.891 39.2486 0
679 1 46.0196 69.1778 0
680 1 31.8487 53.7345 0
681 1 26.3714 54.1042 0
682 1 62.4893 59.5424 0
683 1 18.0115 59.2898 0
684 1 64.4354 69.072 0
685 2 35.9437 18.7747 0
686 1 50.2496 6.17499 0
687 1 41.633 18.9116 0
688 2 53.5629 73.5671 0
689 1 71.9278 62.3615 0
690 1 66.1578 72.507 0
691 1 41.7399 40.0005 0
692 2 59.84 44.0922 0
693 1 71.2901 77.0731 0
694 2 53.7133 64.2568 0
695 1 42.3162 11.8013 0
696 2 35.6761 47.2213 0
697 1 25.7351 13.3308 0
698 1 8.341 3.42603 0
699 1 66.7046 14.0439 0
700 1 72.018 46.8931 0
701 1 64.1413 31.3568 0
702 1 63.7856 65.3701 0
703 2 71.8914 2.40283 0
704 2 8.24888 61.3904 0
705 2 4.9324 7.2214 0
706 1 52.2605 51.649 0
707 2 59.7133 38.5336 0
708 1 50.3215 43.0554 0
709 1 51.668 73.0734 0
710 2 60.3046 28.6567 0
711 1 56.102 54.1863 0
712 2 62.76 32.6644 0
713 2 68.5227 70.4932 0
714 2 0.569744 64.9257 0
715 1 45.3003 18.9407 0
716 1 76.6123 29.8336 0
717 1 29.6936 63.5112 0
718 1 14.2315 3.69758 0
719 1 53.2326 36.8357 0
720 2 49.171 38.6819 0
721 2 66.763 39.8769 0
722 1 49.1005 7.93561 0
723 2 39.8625 75.2319 0
724 2 10.3064 59.5865 0
725 1 50.7252 39.1576 0
726 1 8.55009 29.8235 0
727 2 12.9374 1.49818 0
728 1 67.4054 55.4975 0
729 2 21.3977 59.6269 0
730 1 32.7919 27.4445 0
731 2 16.7513 36.4124 0
732 1 16.4172 54.3873 0
733 1 29.8414 29.5441 0
734 2 66.5005 46.4455 0
735 1 66.7394 67.2877 0
736 1 47.8823 49.4312 0
737 2 4.35706 45.5297 0
738 1 13.7933 34.5892 0
739 1 18.2222 37.5158 0
740 1 48.5261 38.0686 0
741 2 57.2818 55.8052 0
742 1 58.9866 37.5786 0
743 1 27.105 62.1268 0
744 2 72.8583 18.996 0
745 1 23.0003 72.7531 0
746 1 35.1708 10.1709 0
747 1 47.5207 76.0852 0
748 2 43.1461 70.0541 0
749 2 22.385 24.4032 0
750 1 55.3241 34.997 0
751 1 57.7617 40.2414 0
752 2 2.41096 70.395 0
753 1 53.01 39.8057 0
754 2 21.6992 15.3173 0
755 1 23.9719 49.986 0
756 2 49.4027 75.8559 0
757 1 48.3714 19.4265 0
758 1 5.96979 9.64267 0
759 1 61.7515 47.115 0
760 1 12.2166 10.5389 0
761 1 69.9489 71.7667 0
762 1 15.1528 57.5224 0
763 2 77.1179 7.06269 0
764 1 74.9586 56.9705 0
765 2 47.2146 56.6708 0
766 1 63.1031 22.767 0
767 1 13.71 1.16918 0
768 1 65.2252 8.18577 0
769 1 61.6596 50.034 0
770 2 60.5246 73.4594 0
771 1 19.0888 40.0831 0
772 1 45.0444 51.1543 0
773 1 40.7621 43.2834 0
774 2 32.6527 25.7274 0
775 1 71.7249 30.577 0
776 2 43.6427 42.9232 0
777 1 70.4847 55.1943 0
778 2 10.4009 63.1196 0
779 1 45.2759 25.4023 0
780 1 17.0986 6.19432 0
781 1 29.5996 35.2948 0
782 1 57.5699 64.8405 0
783 1 60.7358 35.6368 0
784 1 70.9059 49.9101 0
785 2 8.82451 11.3835 0
786 1 73.1203 70.1624 0
787 1 20.8215 66.5303 0
788 1 39.9728 55.0325 0
789 1 11.0351 4.33984 0
790 1 52.1451 70.1673 0
791 1 45.7434 13.2091 0
792 1 8.59246 24.9721 0
793 1 25.236 14.9148 0
794 2 71.2932 16.6943 0
795 2 75.5755 14.0436 0
796 2 75.4965 67.8935 0
797 1 44.5018 65.2875 0
798 1 38.5752 19.0842 0
799 1 44.1563 76.3954 0
800 1 30.5408 70.4066 0
801 2 6.52905 25.9026 0
802 2 28.0377 45.5724 0
803 2 23.5947 77.1265 0
804 2 52.6618 36.1565 0
805 1 23.8039 71.952 0
806 1 53.0815 70.7577 0
807 2 39.869 50.5536 0
808 1 50.4549 47.2748 0
809 2 36.171 62.5183 0
810 1 58.4077 76.5444 0
811 1 28.6544 61.021 0
812 2 59.6892 48.1971 0
813 2 46.3816 58.1568 0
814 1 54.3915 31.1805 0
815 2 41.122 16.9636 0
816 1 28.016 34.3836 0
817 1 67.7601 75.7349 0
818 2 36.8708 16.1662 0
819 2 45.81 56.6997 0
820 1 66.988 69.8867 0
821 1 16.7631 64.8268 0
822 1 56.7445 76.7639 0
823 1 17.1811 55.7541 0
824 2 35.289 42.6145 0
825 1 29.3386 41.6263 0
826 1 32.7924 75.2992 0
827 1 7.33892 26.1749 0
828 1 76.8696 51.0655 0
829 1 72.0935 40.1927 0
830 2 47.9343 64.6391 0
831 2 43.2821 4.519 0
832 1 73.8874 14.2724 0
833 1 24.5655 43.4564 0
834 2 48.5551 5.47319 0
835 1 68.2511 6.56567 0
836 1 58.0824 27.7858 0
837 1 56.3436 41.4449 0
838 1 39.1384 53.0263 0
839 1 16.0512 60.2182 0
840 2 15.7783 46.6925 0
841 1 37.0355 52.6632 0
842 2 11.0754 61.2357 0
843 1 5.45363 42.4049 0
844 1 63.3669 21.6187 0
845 2 27.9738 2.2528 0
846 1 49.6644 39.404 0
847 1 10.9296 57.7173 0
848 2 69.037 47.7579 0
849 1 74.0553 10.8625 0
850 1 67.9846 19.6448 0
851 1 39.5239 18.6663 0
852 1 12.2023 1.96572 0
853 1 42.3896 61.4371 0
854 1 37.6642 69.6643 0
855 1 39.4852 25.6435 0
856 2 18.854 42.064 0
857 1 57.8889 34.0205 0
858 2 34.4795 28.9364 0
859 1 13.1747 64.7194 0
860 2 2.06171 58.4864 0
861 2 60.1564 40.2068 0
862 2 2.98135 69.1473 0
863 1 58.8272 23.8284 0
864 1 60.5106 53.7692 0
865 2 66.1917 68.0438 0
866 1 60.4857 17.163 0
867 2 31.6011 21.8046 0
868 1 37.0621 61.974 0
869 1 62.0402 20.1798 0
870 1 0.104239 52.7149 0
871 1 62.7156 26.1167 0
872 1 42.4361 50.9422 0
873 1 50.624 62.6696 0
874 1 3.97829 71.5579 0
875 1 34.0325 57.8377 0
876 2 51.565 7.87195 0
877 1 13.3658 55.4181 0
878 2 14.8561 16.039 0
879 1 76.4824 13.9914 0
880 2 31.7519 33.5781 0
881 2 51.9685 29.3519 0
882 2 48.0893 73.5814 0
883 1 25.7686 19.9033 0
884 1 55.9864 36.4323 0
885 1 39.0043 5.05571 0
886 1 37.0437 60.1488 0
887 2 54.8109 50.2973 0
888 1 0.339933 76.5142 0
889 2 59.2285 49.6856 0
890 2 7.84179 25.3914 0
891 1 37.9825 10.4353 0
892 1 40.0481 67.6968 0
893 1 30.0383 53.6506 0
894 1 76.9598 14.918 0
895 2 32.498 53.144 0
896 1 37.5807 2.46216 0
897 2 35.8382 17.0969 0
898 1 31.1188 43.7507 0
899 1 1.95647 75.7213 0
900 2 38.6033 0.153519 0
901 1 52.4636 41.2739 0
902 1 24.3004 75.2915 0
903 1 37.908 40.7618 0
904 2 0.145171 37.5378 0
905 1 63.754 62.1551 0
906 1 68.9741 44.7199 0
907 1 3.77585 29.8453 0
908 1 50.7026 23.8771 0
909 1 0.313442 48.687 0
910 2 1.90101 50.6404 0
911 2 4.66855 4.63192 0
912 2 36.1865 32.9085 0
913 2 32.0173 51.8955 0
914 1 18.3432 12.7603 0
915 2 64.7417 5.56065 0
916 1 3.34934 39.8701 0
917 2 5.08503 33.4982 0
918 2 19.6887 35.3834 0
919 1 8.20857 57.703 0
920 1 15.9738 47.6769 0
921 1 0.191502 26.5337 0
922 2 50.816 18.874 0
923 2 12.303 24.3312 0
924 1 39.3353 17.6097 0
925 1 66.2407 47.2825 0
926 2 35.5583 35.467 0
927 1 68.8087 0.0936493 0
928 1 52.1838 59.0782 0
929 2 52.1909 32.2351 0
930 2 19.9295 15.7387 0
931 1 40.9025 47.6952 0
932 1 70.3053 39.0835 0
933 1 34.4503 21.8154 0
934 1 1.90471 60.157 0
935 1 11.3207 50.5766 0
936 2 42.1567 4.59881 0
937 1 14.2871 73.0898 0
938 1 36.6367 67.5993 0
939 2 50.4262 51.3162 0
940 1 75.8326 46.7719 0
941 1 77.1693 17.4803 0
942 1 37.9743 29.8591 0
943 2 22.301 16.6045 0
944 2 1.97785 41.9511 0
945 1 40.5196 25.2635 0
946 1 64.6097 67.3135 0
947 2 25.166 2.10241 0
948 1 39.2955 68.5328 0
949 1 26.8986 11.6626 0
950 2 5.01732 9.7014 0
951 1 68.9025 65.5749 0
952 2 52.6394 2.61375 0
953 2 7.94519 44.7509 0
954 2 29.7346 62.5858 0
955 1 27.1999 38.687 0
956 2 58.8127 11.0682 0
957 1 48.3893 23.6542 0
958 2 19.4937 2.74264 0
959 2 73.6645 25.0567 0
960 2 29.088 66.9018 0
961 1 49.4529 52.1109 0
962 1 24.4671 1.56658 0
963 1 16.3221 12.4639 0
964 2 8.68233 9.61661 0
965 2 53.7529 53.8336 0
966 1 0.607829 62.6763 0
967 1 49.8685 35.6504 0
968 1 18.3392 0.0863524 0
969 1 57.9269 23.3695 0
970 2 22.657 4.53113 0
971 1 21.144 14.5209 0
972 1 6.93984 25.1425 0
973 1 0.96833 35.7735 0
974 2 1.03357 34.8861 0
975 2 73.0129 65.2122 0
976 2 34.6271 19.9126 0
977 1 35.8286 63.3434 0
978 2 3.12956 76.9613 0
979 2 36.0198 65.771 0
980 1 72.7809 14.19 0
981 1 73.6017 58.0108 0
982 1 7.87188 54.6886 0
983 1 18.4563 24.5551 0
984 1 9.26329 57.9613 0
985 1 34.6441 11.1905 0
986 1 38.0964 52.7097 0
987 2 18.1008 11.9524 0
988 2 42.1052 34.9459 0
989 2 10.036 34.772 0
990 2 69.9477 51.6465 0
991 2 46.3487 14.727 0
992 1 62.3817 34.5886 0
993 2 29.2453 5.59608 0
994 2 1.89048 54.8928 0
995 1 38.9426 22.3449 0
996 2 54.7502 56.9867 0
997 2 43.5101 31.0212 0
998 2 60.3197 74.9513 0
999 2 39.3108 26.5343 0
1000 2 0.568299 49.5014 0
1001 1 41.6903 65.4943 0
1002 1 23.4597 34.3446 0
1003 1 9.61883 54.1948 0
1004 1 7.60566 22.3621 0
1005 2 10.8243 23.6528 0
1006 2 67.7895 60.8416 0
1007 1 18.845 20.3088 0
1008 1 47.9247 16.8684 0
1009 1 30.9916 33.0568 0
1010 1 11.8332 43.4 0
1011 2 10.5069 22.2104 0
1012 2 2.50095 23.3235 0
1013 2 65.214 55.9062 0
1014 1 74.1069 15.4353 0
1015 1 76.0539 9.35173 0
1016 1 37.1991 48.1088 0
1017 2 68.6926 54.2059 0
1018 1 26.2445 24.9283 0
1019 1 44.2388 29.0819 0
1020 2 32.6073 6.28801 0
1021 2 15.924 24.5045 0
1022 1 4.71877 60.754 0
1023 1 41.1199 9.43855 0
1024 1 9.37699 67.7419 0
1025 1 37.0654 65.801 0
1026 1 8.03107 40.1851 0
1027 1 47.3892 2.50763 0
1028 1 2.05429 32.9778 0
1029 1 48.9871 18.203 0
1030 2 46.8854 48.1459 0
1031 2 37.4681 37.268 0
1032 1 16.417 73.1994 0
1033 1 57.5199 19.2402 0
1034 1 35.2855 29.3065 0
1035 1 65.7363 28.4923 0
1036 2 73.5831 45.8356 0
1037 1 31.1226 73.07 0
1038 1 68.5836 60.4624 0
1039 1 5.58353 31.9441 0
1040 2 65.0407 34.2913 0
1041 1 35.3328 65.186 0
1042 2 62.8314 68.2468 0
1043 2 60.8201 58.3618 0
1044 1 67.5544 23.3222 0
1045 1 66.4702 23.2126 0
1046 1 41.0823 68.2095 0
1047 2 9.91652 47.4992 0
1048 1 53.3937 0.034729 0
1049 1 59.783 49.0476 0
1050 2 45.4149 6.31653 0
1051 1 43.5392 31.8489 0
1052 1 66.2396 44.5643 0
1053 2 32.7217 18.4324 0
1054 1 55.1063 7.16089 0
1055 2 32.9072 46.7798 0
1056 2 14.7346 45.2713 0
1057 1 12.0065 71.6073 0
1058 1 27.5466 5.78702 0
1059 1 9.2872 75.2598 0
1060 2 21.8676 42.1471 0
1061 1 10.157 23.0625 0
1062 2 17.1193 41.4378 0
1063 1 77.3796 67.8179 0
1064 1 23.3454 5.08081 0
1065 2 29.7363 52.7913 0
1066 1 37.4795 46.4222 0
1067 1 13.9882 10.3489 0
1068 2 35.6274 67.0466 0
1069 1 67.8371 24.3988 0
1070 2 8.33209 34.4583 0
1071 2 49.5117 42.7796 0
1072 2 9.43948 48.7266 0
1073 2 16.3741 3.59947 0
1074 2 33.8258 45.4594 0
1075 1 75.9029 49.6787 0
1076 1 41.2225 7.65834 0
1077 1 41.6859 32.7815 0
1078 2 71.6652 26.3488 0
1079 2 38.9592 10.9009 0
1080 2 30.0577 72.9412 0
1081 2 45.9605 49.0022 0
1082 2 6.30293 27.6176 0
1083 2 21.7064 19.8921 0
1084 1 44.3559 57.7208 0
1085 1 19.1508 52.4218 0
1086 1 70.1357 66.885 0
1087 1 29.5353 72.0384 0
1088 1 44.6575 63.2115 0
1089 2 8.49311 31.6332 0
1090 1 42.8218 34.5106 0
1091 2 27.8007 17.814 0
1092 1 63.056 53.5196 0
1093 1 69.2066 32.9315 0
1094 2 43.6721 55.2216 0
1095 1 25.2999 71.0166 0
1096 2 48.2257 18.5742 0
1097 1 76.1721 17.7179 0
1098 1 62.6734 43.854 0
1099 1 31.2219 4.98845 0
1100 1 67.5623 2.75422 0
1101 1 74.9036 11.6468 0
1102 1 25.9521 74.8631 0
1103 1 51.3248 70.8509 0
1104 1 47.2344 58.0671 0
1105 1 48.1904 40.2176 0
1106 1 16.5001 71.3364 0
1107 2 45.2305 62.4088 0
1108 1 55.7157 31.2606 0
1109 1 72.7394 24.9617 0
1110 2 14.8887 11.8097 0
1111 1 2.66762 56.8408 0
1112 1 76.1819 18.7347 0
1113 2 75.4848 7.65 0
1114 2 14.7422 53.119 0
1115 2 33.0721 49.5966 0
1116 1 77.1848 64.6502 0
1117 1 66.9002 56.4203 0
1118 1 12.3629 75.4699 0
1119 2 11.3393 64.2513 0
1120 1 41.5823 58.32 0
1121 2 21.1599 64.2299 0
1122 1 32.0121 32.6734 0
1123 2 23.0759 51.9423 0
1124 1 52.741 62.0242 0
1125 2 14.7593 4.35094 0
1126 2 15.5367 20.0503 0
1127 1 74.6512 23.9792 0
1128 1 67.2146 52.0415 0
1129 1 60.8266 39.6798 0
1130 1 30.6551 47.3602 0
1131 1 62.5325 15.3847 0
1132 2 75.8457 63.5646 0
1133 2 56.0569 22.5168 0
1134 2 20.8431 71.9959 0
1135 1 0.73064 68.5356 0
1136 2 51.2517 26.8702 0
1137 1 51.0778 61.435 0
1138 1 30.4179 13.6653 0
1139 2 57.7317 53.0159 0
1140 2 8.9151 22.7734 0
1141 1 74.845 65.4662 0
1142 1 27.0156 52.3191 0
1143 1 48.2799 44.8642 0
1144 2 60.9074 16.4034 0
1145 1 37.874 62.5737 0
1146 1 15.6169 18.8954 0
1147 1 28.313 25.6448 0
1148 1 10.9442 36.8026 0
1149 1 57.5733 29.3939 0
1150 2 65.4864 61.0769 0
1151 1 21.9463 3.83096 0
1152 1 59.8972 52.1235 0
1153 1 71.7129 29.5762 0
1154 1 13.8939 4.71319 0
1155 2 60.1344 20.2521 0
1156 1 44.444 32.3634 0
1157 1 12.3553 18.2437 0
1158 2 58.2833 47.8563 0
1159 2 5.62435 70.4743 0
1160 1 33.0625 7.81871 0
1161 2 43.9794 56.6822 0
1162 1 15.9063 9.83579 0
1163 2 13.4197 72.9176 0
1164 1 24.0113 58.7928 0
1165 1 20.9116 45.5318 0
1166 2 15.4508 50.6651 0
1167 1 28.0487 20.3367 0
1168 1 56.4947 64.7991 0
1169 1 19.5799 66.7852 0
1170 2 6.48181 33.7052 0
1171 1 48.5663 33.7846 0
1172 1 23.04 6.73712 0
1173 1 51.7986 64.0181 0
1174 1 38.8794 29.3686 0
1175 2 62.5929 44.8019 0
1176 1 68.4045 36.4622 0
1177 1 47.7451 69.8908 0
1178 2 61.0747 47.6069 0
1179 1 72.4873 32.5635 0
1180 1 51.9928 17.7699 0
1181 1 54.2997 22.9535 0
1182 1 60.9309 74.1928 0
1183 2 43.0963 73.3701 0
1184 2 28.138 21.9145 0
1185 1 17.4191 63.2776 0
1186 1 48.9748 49.471 0
1187 1 73.9556 72.1202 0
1188 2 4.77048 37.7448 0
1189 1 60.8394 65.34 0
1190 1 28.3722 51.4649 0
1191 2 72.2762 5.10521 0
1192 1 24.6881 47.0475 0
1193 1 47.6454 17.9326 0
1194 2 16.6427 15.9476 0
1195 1 74.2127 48.7764 0
1196 1 21.8878 49.8032 0
1197 1 35.6166 39.1665 0
1198 1 62.2818 76.6298 0
1199 2 57.9234 62.5299 0
1200 1 27.0155 8.77443 0
1201 1 2.93232 73.1108 0
1202 1 5.84702 48.8961 0
1203 2 47.5197 12.2272 0
1204 1 57.5554 56.7105 0
1205 1 66.6598 50.1782 0
1206 1 52.0452 5.05852 0
1207 1 31.7541 62.865 0
1208 1 75.3686 57.9455 0
1209 2 65.3353 59.7093 0
1210 1 69.7417 31.9391 0
1211 2 24.8206 35.4316 0
1212 1 33.7029 36.2945 0
1213 1 61.2991 69.0144 0
1214 1 61.4645 23.7486 0
1215 1 11.679 72.5851 0
1216 1 11.0798 49.3343 0
1217 2 68.3371 3.04184 0
1218 2 61.479 20.8656 0
1219 1 30.1858 15.389 0
1220 1 61.8919 18.0237 0
1221 1 61.6008 55.0077 0
1222 2 66.5494 74.2987 0
1223 1 42.3703 48.1778 0
1224 1 0.718411 34.0813 0
1225 1 2.89054 25.6886 0
1226 2 65.8384 64.8358 0
1227 1 41.654 57.2732 0
1228 1 76.2188 70.7409 0
1229 2 47.9253 9.25119 0
1230 1 25.7032 49.8902 0
1231 2 52.865 18.0356 0
1232 1 67.7605 38.1179 0
1233 1 38.87 58.0965 0
1234 1 1.60517 67.9127 0
1235 1 18.1822 46.0885 0
1236 1 52.379 63.0785 0
1237 1 38.0365 20.7344 0
1238 1 24.8786 7.18094 0
1239 1 12.8966 22.6748 0
1240 1 24.2851 62.988 0
1241 1 76.2326 62.7476 0