ITEM: TIMESTEP
0
ITEM: NUMBER OF ATOMS
7200
ITEM: BOX BOUNDS xy xz yz pp pp pp
0.0000000000000000e+00 7.7459666924100006e+01 0.0000000000000000e+00
0.0000000000000000e+00 7.7459666924100006e+01 0.0000000000000000e+00
-1.2909944490000000e-01 1.2909944490000000e-01 0.0000000000000000e+00
ITEM: ATOMS id type x y z
1 1 12.165 20.1629 0
2 1 14.9079 64.0148 0
3 1 75.2646 71.1049 0
4 1 20.3844 8.064 0
5 1 34.5911 55.9685 0
6 1 56.6473 28.647 0
7 2 5.43133 3.34206 0
8 2 64.7621 46.4387 0
9 1 42.0714 56.0696 0
10 2 19.1327 14.6842 0
11 2 25.3872 53.1304 0
12 1 55.1964 11.58 0
13 2 23.1552 6.0084 0
14 1 46.5454 70.6549 0
15 1 39.4317 31.3076 0
16 1 18.2683 14.9156 0
17 1 31.3864 40.0764 0
18 1 33.7934 5.79004 0
19 1 26.9823 57.75 0
20 2 44.9611 3.64361 0
21 1 12.2339 65.8839 0
22 1 54.4248 10.8114 0
23 1 75.6301 45.7568 0
24 1 55.8299 66.3598 0
25 1 6.69218 71.0281 0
26 1 21.1708 67.5807 0
27 2 28.9634 63.758 0
28 1 51.3165 74.239 0
29 2 22.4689 47.9504 0
30 2 25.3124 32.1414 0
31 1 15.176 53.3159 0
32 1 51.0812 38.007 0
33 1 60.8053 48.5344 0
34 2 45.3858 9.6549 0
35 1 75.2038 63.1214 0
36 1 30.6322 60.038 0
37 1 22.2878 61.444 0
38 1 45.8064 19.746 0
39 1 22.3181 5.64818 0
40 2 24.8692 59.1588 0
41 2 18.5206 64.6985 0
42 1 20.9422 1.13502 0
43 1 18.9387 33.5588 0
44 1 34.3135 62.7454 0
45 1 3.33994 34.4937 0
46 1 68.2968 7.5423 0
47 1 73.5162 59.1051 0
48 1 44.1214 68.3105 0
49 2 77.2985 4.20614 0
50 1 31.0721 66.7098 0
51 1 1.3491 10.0045 0
52 2 33.1828 24.2416 0
53 1 53.6455 18.6842 0
54 1 49.6413 30.2941 0
55 1 9.66035 1.05058 0
56 1 45.9438 26.0437 0
57 1 67.5282 43.1044 0
58 1 69.766 69.1355 0
59 1 34.1928 2.17008 0
60 1 28.6391 3.43676 0
61 1 40.5014 75.9734 0
62 1 52.2183 45.0355 0
63 1 57.2653 9.90986 0
64 1 50.664 45.7582 0
65 1 66.9811 73.6926 0
66 2 56.0467 11.3807 0
67 2 40.6996 35.9393 0
68 2 0.819355 29.1444 0
69 1 62.0038 45.4101 0
70 1 8.42146 35.4893 0
71 2 7.44557 42.2974 0
72 1 76.8519 3.40016 0
73 1 6.30322 64.2099 0
74 2 41.5711 22.8024 0
75 1 75.395 53.3588 0
76 1 19.6524 46.9197 0
77 1 25.0258 74.4687 0
78 1 3.63766 15.6022 0
79 1 12.6106 73.3769 0
80 1 43.5021 16.5393 0
81 1 55.0021 62.3045 0
82 2 44.3648 16.5554 0
83 1 5.75507 32.943 0
84 1 32.9688 45.7073 0
85 1 34.523 20.8702 0
86 2 34.6287 64.7222 0
87 1 71.5742 34.7324 0
88 1 18.4303 54.7377 0
89 1 27.7958 13.0947 0
90 1 37.451 37.8818 0
91 2 45.9091 41.1127 0
92 2 41.2025 56.1134 0
93 1 27.8157 16.9237 0
94 1 33.4888 55.6862 0
95 2 39.1366 56.7357 0
96 1 65.3922 1.25018 0
97 1 44.1154 48.9839 0
98 2 2.86624 60.0651 0
99 1 61.852 48.2388 0
100 2 32.4162 30.8144 0
101 1 47.6022 54.3797 0
102 1 56.0787 21.6025 0
103 1 56.6138 70.4579 0
104 1 2.75124 60.9047 0
105 2 40.1098 3.05259 0
106 2 30.477 34.8922 0
107 1 13.2105 31.3896 0
108 1 0.826909 0.87448 0
109 1 35.6016 41.5922 0
110 2 65.1798 25.5078 0
111 1 66.0506 11.9951 0
112 1 34.184 72.8021 0
113 2 0.294859 60.3129 0
114 2 74.5474 29.3491 0
115 2 30.4238 12.8038 0
116 2 74.5592 53.5991 0
117 1 16.1578 45.9201 0
118 2 46.8246 26.4588 0
119 1 62.758 0.0784784 0
120 2 5.94913 49.8928 0
121 1 6.27809 3.58788 0
122 1 19.9235 33.1396 0
123 2 5.41419 17.7631 0
124 1 46.317 57.2294 0
125 1 31.6883 27.2649 0
126 1 57.9362 52.1375 0
127 1 4.43708 58.9804 0
128 1 14.4565 23.477 0
129 1 16.4609 52.1604 0
130 1 7.26588 2.12799 0
131 1 59.1171 24.914 0
132 2 31.1113 41.8005 0
133 2 52.7525 6.97648 0
134 1 65.727 51.0301 0
135 1 31.6145 30.3834 0
136 2 55.2569 46.4691 0
137 1 61.6487 56.7134 0
138 2 70.4938 48.027 0
139 1 68.3684 27.2668 0
140 1 3.53611 21.861 0
141 2 48.0519 63.5044 0
142 1 6.55324 22.6222 0
143 2 40.5925 70.1149 0
144 2 47.3616 75.226 0
145 2 18.2751 52.9621 0
146 1 54.9991 4.04282 0
147 1 9.35343 38.9962 0
148 1 46.2999 53.3286 0
149 2 67.962 49.2702 0
150 1 32.8045 56.5615 0
151 2 29.5565 13.8276 0
152 1 48.8412 63.1376 0
153 2 17.3787 46.3566 0
154 2 31.5071 72.2381 0
155 1 70.563 49.0012 0
156 1 43.5523 10.2837 0
157 1 49.2194 71.1535 0
158 1 60.1291 69.2056 0
159 2 10.5598 26.0524 0
160 1 38.1703 17.4357 0
161 1 7.1856 63.5828 0
162 2 72.6299 23.9923 0
163 1 30.6058 27.0819 0
164 1 60.2518 29.5551 0
165 1 75.6861 27.7712 0
166 1 1.97119 44.8063 0
167 1 39.2592 0.859508 0
168 1 38.4472 72.8236 0
169 1 56.7966 30.9103 0
170 1 57.4001 0.97387 0
171 2 36.9242 61.1342 0
172 2 33.6514 53.7881 0
173 2 43.8199 24.2902 0
174 2 27.4971 55.9361 0
175 2 30.9734 26.2644 0
176 1 46.2787 16.1766 0
177 1 19.6762 58.5944 0
178 1 61.8085 61.3958 0
179 1 64.651 24.8255 0
180 2 33.2471 39.666 0
181 1 45.2162 27.5822 0
182 1 61.7281 58.6461 0
183 2 12.0659 37.4269 0
184 1 5.21873 67.4265 0
185 2 67.1587 29.4729 0
186 1 59.0479 35.0933 0
187 1 39.4868 46.3779 0
188 1 57.3521 47.6897 0
189 2 63.7081 53.0775 0
190 1 23.1454 4.09692 0
191 1 71.8827 8.09654 0
192 1 65.5684 10.2892 0
193 2 10.8014 41.6438 0
194 2 68.5996 69.0667 0
195 1 11.0995 3.32424 0
196 2 49.4625 54.8997 0
197 2 20.2881 9.96171 0
198 1 13.3727 61.2527 0
199 2 75.6202 66.2007 0
200 1 59.8616 27.7494 0
201 2 34.6857 1.44684 0
202 2 74.5998 55.1553 0
203 1 52.239 65.7246 0
204 1 29.6418 3.85355 0
205 1 56.1329 26.062 0
206 2 35.7331 36.9589 0
207 2 14.0341 9.48211 0
208 1 33.8023 14.0472 0
209 1 12.2079 11.5809 0
210 2 5.33291 20.4697 0
211 1 17.2641 8.18286 0
212 2 24.7662 6.29741 0
213 2 56.0186 27.9872 0
214 1 71.0907 57.8005 0
215 2 67.0017 22.4038 0
216 1 20.6189 73.6379 0
217 1 59.5946 34.1693 0
218 2 54.731 58.5953 0
219 2 68.0185 42.376 0
220 2 42.9664 63.9877 0
221 1 18.9779 45.285 0
222 1 45.0922 12.4016 0
223 2 39.1214 67.8144 0
224 2 27.7729 68.6709 0
225 1 32.4314 23.7838 0
226 2 66.3833 57.266 0
227 2 6.04937 16.4035 0
228 1 34.5731 9.32421 0
229 1 70.9792 26.8237 0
230 1 32.159 74.5589 0
231 1 10.7029 34.2602 0
232 1 42.0559 12.8424 0
233 1 34.8766 7.63873 0
234 1 76.1416 8.30016 0
235 1 60.7199 59.1134 0
236 2 44.7312 70.4152 0
237 1 77.1699 62.2419 0
238 2 9.19972 21.483 0
239 1 58.6195 2.75435 0
240 2 61.6922 46.2516 0
241 1 47.34 66.6443 0
242 1 18.5599 30.6742 0
243 1 7.27922 56.3221 0
244 1 61.1591 64.3096 0
245 1 11.0754 30.7554 0
246 1 2.01173 35.5524 0
247 1 65.6266 49.9805 0
248 1 12.307 0.813386 0
249 2 50.3434 41.1675 0
250 1 29.0774 9.37407 0
251 2 57.5895 50.1724 0
252 2 65.8295 23.2921 0
253 1 19.8746 17.6112 0
254 1 54.3915 25.0023 0
255 1 65.5372 42.9617 0
256 1 31.426 8.58451 0
257 1 22.1691 57.8831 0
258 1 26.1596 38.7394 0
259 1 55.5021 56.8093 0
260 2 43.9534 53.8053 0
261 2 26.3517 62.6324 0
262 1 24.3883 33.7965 0
263 2 12.6716 34.6785 0
264 2 71.4176 60.0004 0
265 1 77.0429 46.705 0
266 1 38.062 44.7158 0
267 2 61.6223 24.5823 0
268 2 56.6924 45.8839 0
269 1 48.1292 20.9564 0
270 2 8.98864 47.0987 0
271 2 22.4935 33.6228 0
272 2 20.4804 14.3106 0
273 1 14.9256 65.0808 0
274 1 32.265 50.0041 0
275 1 8.56315 48.9931 0
276 1 75.3537 10.1675 0
277 2 15.5726 71.3327 0
278 1 7.55576 17.4978 0
279 1 4.49016 44.447 0
280 1 20.385 35.8346 0
281 1 30.6914 38.5104 0
282 2 75.9291 26.4354 0
283 1 76.4653 55.765 0
284 2 54.2507 38.3604 0
285 1 70.9502 52.8495 0
286 1 11.3624 63.3476 0
287 1 19.0871 76.7703 0
288 2 75.769 3.80372 0
289 2 21.407 39.1328 0
290 2 69.249 76.3569 0
291 1 35.2394 22.621 0
292 1 27.7272 58.5298 0
293 1 47.4134 18.9629 0
294 1 40.3247 2.19351 0
295 1 69.9335 3.3249 0
296 2 74.2094 8.47674 0
297 1 40.3378 59.8705 0
298 1 72.579 35.1623 0
299 2 49.2684 36.4947 0
300 1 39.1909 43.6727 0
301 1 73.5219 19.6192 0
302 1 50.8906 35.1955 0
303 1 20.4473 32.164 0
304 1 60.5157 72.3916 0
305 2 59.1453 75.9183 0
306 1 62.95 52.5991 0
307 2 73.3082 38.8533 0
308 1 41.624 5.23358 0
309 2 24.984 16.9265 0
310 2 13.3777 12.9762 0
311 1 29.3928 49.6107 0
312 1 67.3304 61.609 0
313 1 74.7387 76.1031 0
314 1 40.4643 45.9481 0
315 2 56.4014 31.7296 0
316 2 39.5814 63.4402 0
317 1 50.8554 20.5267 0
318 2 7.02185 31.2737 0
319 1 30.951 25.389 0
320 1 36.167 61.7342 0
321 1 58.5968 68.4069 0
322 2 74.0506 11.852 0
323 2 25.0563 63.526 0
324 1 64.4368 41.5878 0
325 1 41.2753 6.2593 0
326 1 9.77174 58.9131 0
327 1 48.619 54.7291 0
328 1 0.708262 36.9525 0
329 1 41.6331 42.7017 0
330 2 51.7613 34.9257 0
331 2 70.1548 4.16756 0
332 1 59.4783 28.8143 0
333 1 36.9532 12.2451 0
334 1 17.0208 34.8225 0
335 1 20.6267 38.7198 0
336 2 72.3406 74.3602 0
337 1 34.7556 33.7182 0
338 2 17.0796 1.51817 0
339 1 42.5191 68.486 0
340 1 18.8969 57.8798 0
341 2 74.12 44.2516 0
342 1 67.1164 5.85599 0
343 2 56.3524 49.8365 0
344 2 22.779 66.0046 0
345 1 7.96691 27.7905 0
346 1 17.4532 71.7689 0
347 1 35.466 56.5806 0
348 1 56.5928 18.9227 0
349 1 33.7172 20.1748 0
350 1 37.2153 31.1377 0
351 1 17.9264 53.7602 0
352 1 47.8639 30.7466 0
353 1 75.3336 25.7874 0
354 2 22.6722 26.2107 0
355 2 43.4462 18.1849 0
356 2 11.8327 2.85659 0
357 1 68.4364 67.4766 0
358 1 24.1693 3.80343 0
359 1 22.4 14.5816 0
360 2 45.2218 31.2825 0
361 2 48.0523 67.2345 0
362 1 27.064 74.5874 0
363 2 38.0243 73.6016 0
364 1 13.1844 66.4731 0
365 2 9.01256 57.1958 0
366 1 24.8922 50.6372 0
367 2 19.74 23.4205 0
368 2 51.2866 54.9544 0
369 2 65.2168 70.575 0
370 1 3.43326 28.327 0
371 1 46.0338 73.4897 0
372 2 40.5561 9.9562 0
373 1 10.4736 31.6852 0
374 2 66.6413 41.3902 0
375 1 52.1605 52.7822 0
376 2 75.5374 43.1816 0
377 2 58.1829 38.1499 0
378 1 20.4349 63.7388 0
379 1 13.939 20.2541 0
380 1 9.84209 62.444 0
381 1 26.7209 23.3395 0
382 1 30.7176 23.6685 0
383 1 9.636 11.8545 0
384 1 34.9135 51.6511 0
385 1 28.3648 77.1552 0
386 1 54.9246 40.3849 0
387 1 59.5875 76.6585 0
388 2 55.8301 57.8123 0
389 1 24.6332 56.6541 0
390 1 29.5441 12.9794 0
391 2 59.8566 26.7918 0
392 2 30.1173 10.1401 0
393 2 38.8076 65.0032 0
394 1 10.2517 73.7676 0
395 1 53.1721 21.9096 0
396 1 13.8131 70.4907 0
397 1 46.823 17.1482 0
398 1 45.4801 70.8526 0
399 1 70.0191 18.0145 0
400 1 59.8634 74.1432 0
401 1 44.6453 11.4523 0
402 2 56.5765 16.9498 0
403 1 38.2089 51.5957 0
404 1 69.3192 70.8227 0
405 2 73.8292 76.2525 0
406 1 34.2427 19.1764 0
407 2 45.7181 21.7325 0
408 1 63.4877 30.4553 0
409 1 18.6234 61.3204 0
410 2 67.4794 16.7113 0
411 2 66.6071 36.6204 0
412 1 58.9339 38.6556 0
413 1 7.05964 36.5782 0
414 1 71.3557 48.272 0
415 1 6.99806 41.5531 0
416 2 73.7614 62.3341 0
417 2 75.1633 12.7117 0
418 1 54.2993 30.0543 0
419 2 56.6463 47.2028 0
420 2 24.8546 55.8291 0
421 1 60.2764 19.426 0
422 1 2.02832 71.4164 0
423 1 4.28453 12.0675 0
424 1 60.7045 27.0117 0
425 1 58.8032 50.4773 0
426 1 56.0519 73.7496 0
427 2 39.5425 14.7471 0
428 1 51.4807 50.2718 0
429 1 59.132 71.0656 0
430 1 36.6433 37.0678 0
431 1 0.0366244 29.5093 0
432 1 63.4215 49.0946 0
433 1 29.178 69.4299 0
434 1 1.80068 42.8719 0
435 1 64.1072 34.2679 0
436 2 67.9755 39.0655 0
437 2 43.6966 59.3786 0
438 1 38.8724 61.7924 0
439 2 41.1936 12.5846 0
440 1 43.3571 43.6705 0
441 2 66.6269 15.2452 0
442 1 9.56639 37.974 0
443 1 54.6077 16.8198 0
444 1 16.7155 75.3399 0
445 2 69.3708 67.4781 0
446 1 61.7193 42.168 0
447 1 27.0035 70.8366 0
448 1 46.9778 37.6763 0
449 1 37.1609 73.2841 0
450 2 48.1473 59.6074 0
451 2 6.52257 61.7396 0
452 1 66.6717 11.1869 0
453 1 28.612 76.1112 0
454 2 62.6584 29.9718 0
455 2 26.5535 67.891 0
456 1 11.3674 44.6394 0
457 2 18.5585 1.83907 0
458 1 38.0256 77.1049 0
459 2 15.583 56.7207 0
460 1 5.45433 4.27145 0
461 2 27.2415 27.0836 0
462 1 45.811 24.2808 0
463 1 75.903 69.6854 0
464 1 9.00435 47.9665 0
465 2 40.5862 45.1029 0
466 1 21.8042 12.9262 0
467 2 11.5909 1.3181 0
468 1 19.3934 36.3058 0
469 1 1.91869 2.19394 0
470 1 61.8672 10.4704 0
471 2 73.9753 40.8794 0
472 1 25.5136 43.097 0
473 1 61.5722 65.885 0
474 1 33.4542 54.6288 0
475 1 22.4919 59.7483 0
476 2 38.9371 32.0561 0
477 1 60.6719 11.585 0
478 2 33.128 74.5101 0
479 1 33.3863 22.3532 0
480 1 19.8749 25.6939 0
481 1 7.22983 18.6513 0
482 1 10.9158 25.2318 0
483 2 1.13359 1.69391 0
484 1 14.359 38.384 0
485 1 21.3665 57.1504 0
486 1 7.12085 4.70834 0
487 2 70.9806 10.3687 0
488 1 59.0636 5.36115 0
489 1 52.4184 15.1557 0
490 1 35.4672 31.0644 0
491 1 30.5483 42.6197 0
492 2 61.2634 9.79155 0
493 1 73.4046 8.95593 0
494 1 67.5824 32.035 0
495 2 22.5338 49.1662 0
496 2 52.7576 42.1401 0
497 2 40.6728 6.87086 0
498 1 23.5829 25.9602 0
499 1 35.817 74.3763 0
500 1 2.69077 4.15105 0
501 2 45.5364 43.5036 0
502 1 16.7378 24.8473 0
503 1 50.334 9.76034 0
504 1 37.0455 32.6644 0
505 2 26.5014 77.0846 0
506 2 17.6027 65.1707 0
507 1 42.0125 37.3314 0
508 1 12.8729 32.7308 0
509 1 28.955 24.8402 0
510 1 6.96541 38.7801 0
511 1 69.2975 26.6998 0
512 1 54.4508 53.3334 0
513 1 11.8987 34.218 0
514 1 25.3576 64.3348 0
515 2 61.4483 11.2557 0
516 2 11.3804 38.6454 0
517 2 74.4617 74.5742 0
518 2 19.1267 54.2813 0
519 2 33.3012 1.95166 0
520 1 74.3474 37.1582 0
521 1 42.1187 24.433 0
522 2 24.3707 66.1455 0
523 1 77.2902 12.2548 0
524 1 70.4954 34.6147 0
525 1 22.7859 77.4345 0
526 2 76.4782 22.3895 0
527 1 49.5021 26.1186 0
528 2 74.5575 5.09743 0
529 2 35.1663 45.1735 0
530 1 7.87351 59.5505 0
531 2 76.3739 68.9218 0
532 2 32.218 60.8776 0
533 1 72.8767 5.40908 0
534 1 34.5102 27.1794 0
535 1 29.1183 19.2394 0
536 1 32.6172 65.8586 0
537 1 35 47.8248 0
538 2 16.4211 21.6281 0
539 2 46.0067 76.8274 0
540 1 60.8938 40.6831 0
541 2 24.9637 8.12835 0
542 1 51.1081 56.7617 0
543 2 69.5738 55.6573 0
544 2 52.0116 10.4471 0
545 1 28.3426 22.8398 0
546 1 34.297 3.24118 0
547 1 10.2183 14.4678 0
548 2 23.6077 3.12595 0
549 2 65.4157 21.8851 0
550 2 5.14208 39.418 0
551 1 30.4161 8.30431 0
552 2 70.5583 40.3477 0
553 2 29.4556 44.8962 0
554 1 51.6385 62.2525 0
555 1 50.176 57.226 0
556 1 73.0084 68.0297 0
557 1 61.9406 54.0111 0
558 1 2.57706 68.4965 0
559 1 72.5595 36.2271 0
560 2 21.4226 61.4928 0
561 1 5.66443 0.642942 0
562 2 4.59351 11.2002 0
563 2 54.1308 48.7829 0
564 1 70.0673 68.0643 0
565 2 21.8162 1.31531 0
566 2 18.1616 23.8254 0
567 1 48.93 42.1536 0
568 2 22.7923 74.1145 0
569 2 15.7166 27.5005 0
570 1 73.216 34.2079 0
571 1 0.466423 3.52582 0
572 2 6.65034 48.521 0
573 2 0.0177792 44.9012 0
574 1 3.79973 69.0016 0
575 1 18.3164 7.76769 0
576 1 16.4092 63.1019 0
577 1 43.2994 50.4625 0
578 2 67.6568 34.244 0
579 2 45.8504 69.0943 0
580 1 62.7109 42.6314 0
581 1 6.63861 60.7472 0
582 2 68.6394 59.6422 0
583 2 64.0876 58.7226 0
584 2 33.4508 65.5764 0
585 1 61.0242 77.38 0
586 1 48.6674 58.6445 0
587 2 14.6675 21.7629 0
588 1 49.578 5.18419 0
589 2 53.7295 10.2458 0
590 1 24.5855 73.486 0
591 1 56.4992 6.43671 0
592 1 48.5916 74.303 0
593 1 44.1081 13.0697 0
594 1 59.7901 63.3438 0
595 1 72.1395 65.3817 0
596 2 7.12734 1.26295 0
597 1 3.49838 44.0475 0
598 1 69.1158 9.1216 0
599 1 2.69629 51.1122 0
600 1 0.151358 47.5674 0
601 2 42.1107 36.1504 0
602 1 62.2469 14.3736 0
603 2 70.9395 50.9823 0
604 2 62.3 16.5018 0
605 1 52.3696 69.2478 0
606 1 41.6132 4.07807 0
607 1 76.352 1.35928 0
608 2 1.2975 40.2432 0
609 2 40.8404 0.449776 0
610 1 7.80372 49.7813 0
611 1 53.8883 58.765 0
612 1 76.7593 6.215 0
613 1 76.9288 23.1396 0
614 2 50.5019 28.4319 0
615 1 34.5412 38.7974 0
616 1 39.74 16.0723 0
617 1 69.0903 2.64651 0
618 2 11.9527 42.748 0
619 2 55.2064 42.3062 0
620 2 70.9228 73.9009 0
621 2 58.4537 35.7414 0
622 1 60.2071 18.2783 0
623 1 37.4609 11.3353 0
624 2 20.4255 54.8133 0
625 1 26.9223 76.3228 0
626 1 73.7471 29.056 0
627 2 2.27712 25.0142 0
628 1 28.7626 58.1075 0
629 2 77.4164 25.4779 0
630 1 29.0724 73.0918 0
631 1 56.8989 37.1757 0
632 1 21.5912 65.0366 0
633 2 25.5645 71.9961 0
634 1 18.7487 50.7192 0
635 2 41.4445 43.6283 0
636 2 37.004 40.7152 0
637 1 11.216 11.092 0
638 1 67.348 40.9032 0
639 1 70.2838 46.3325 0
640 1 0.242831 54.0111 0
641 1 36.5167 33.6117 0
642 1 9.70066 33.8392 0
643 1 50.302 44.7592 0
644 2 19.3214 27.3317 0
645 1 56.8681 52.3319 0
646 1 46.2521 47.0695 0
647 2 23.7234 10.4704 0
648 1 64.3193 12.4544 0
649 2 10.778 69.0717 0
650 2 47.1479 61.9652 0
651 1 46.2054 12.103 0
652 1 29.589 70.9532 0
653 2 13.6403 23.1933 0
654 2 10.3159 3.74794 0
655 1 5.55006 51.9083 0
656 1 72.7412 53.8568 0
657 1 33.7233 46.489 0
658 1 71.6194 13.1776 0
659 2 0.864242 66.1599 0
660 1 26.821 35.6419 0
661 1 37.3145 9.82066 0
662 1 32.8007 60.037 0
663 1 10.7138 28.693 0
664 1 58.4676 75.3457 0
665 2 49.1934 76.9685 0
666 2 12.8307 58.1911 0
667 1 26.3293 73.764 0
668 2 7.79159 76.1679 0
669 1 4.36312 9.21711 0
670 2 43.9636 37.7289 0
671 2 37.3014 17.4854 0
672 1 9.95344 19.6921 0
673 1 6.93631 16.634 0
674 1 32.6582 42.5876 0
675 2 4.87611 58.1691 0
676 2 38.0095 6.31168 0
677 1 41.329 54.0319 0
678 1 53.7486 39.0836 0
679 1 46.5985 69.5608 0
680 1 31.7333 53.6198 0
681 1 26.4017 54.1058 0
682 1 62.3846 59.6164 0
683 1 18.0801 59.2994 0
684 1 64.3813 68.9229 0
685 2 35.864 18.699 0
686 1 50.4183 6.1479 0
687 1 41.5627 18.8824 0
688 2 53.5595 73.6179 0
689 1 71.9921 62.4679 0
690 1 66.0278 72.2777 0
691 1 41.8204 39.9665 0
692 2 59.948 44.0642 0
693 1 71.3289 76.9132 0
694 2 53.6048 64.3229 0
695 1 42.3638 11.7844 0
696 2 35.5374 47.1153 0
697 1 25.7167 13.3617 0
698 1 8.41345 3.5147 0
699 1 66.7288 13.8933 0
700 1 72.0308 46.9983 0
701 1 64.19 31.2614 0
702 1 63.5666 65.314 0
703 2 71.9853 2.1697 0
704 2 8.2774 61.3418 0
705 2 4.92814 7.27732 0
706 1 52.2502 51.7048 0
707 2 59.7707 38.4346 0
708 1 50.401 43.0847 0
709 1 51.6666 73.2242 0
710 2 60.357 28.683 0
711 1 55.9328 54.1747 0
712 2 62.858 32.7555 0
713 2 68.3633 70.4315 0
714 2 0.624799 64.8625 0
715 1 45.2737 18.7842 0
716 1 76.4773 29.7784 0
717 1 29.782 63.4597 0
718 1 14.2544 3.71705 0
719 1 53.3171 36.9072 0
720 2 49.1953 38.4183 0
721 2 66.8368 39.8911 0
722 1 49.1092 7.923 0
723 2 39.9412 75.3177 0
724 2 10.4301 59.5119 0
725 1 50.7386 39.1715 0
726 1 8.2307 29.9783 0
727 2 12.8778 1.46403 0
728 1 67.3858 55.6361 0
729 2 21.6337 59.6763 0
730 1 32.7885 27.4841 0
731 2 16.6013 36.4847 0
732 1 16.3799 54.2665 0
733 1 29.8435 29.5047 0
734 2 66.4345 46.541 0
735 1 66.6845 67.236 0
736 1 47.8273 49.3569 0
737 2 4.04326 45.8921 0
738 1 13.6235 34.6037 0
739 1 17.9765 37.5339 0
740 1 48.4483 37.9516 0
741 2 57.1616 55.6998 0
742 1 58.9715 37.5902 0
743 1 27.1719 62.1059 0
744 2 72.7981 19.0238 0
745 1 23.1167 72.6931 0
746 1 35.0861 10.2436 0
747 1 47.506 76.1122 0
748 2 43.1671 69.9322 0
749 2 22.3509 24.4348 0
750 1 55.3455 35.0705 0
751 1 57.7926 40.1505 0
752 2 2.45501 70.3825 0
753 1 53.0357 39.8612 0
754 2 21.821 15.2406 0
755 1 24.0358 49.9759 0
756 2 49.4154 75.9933 0
757 1 48.4134 19.3894 0
758 1 6.03059 9.76205 0
759 1 61.7607 47.1434 0
760 1 12.21 10.5253 0
761 1 69.8888 71.7173 0
762 1 15.2539 57.5427 0
763 2 77.1765 7.00863 0
764 1 75.0448 57.0363 0
765 2 47.0062 56.7056 0
766 1 63.2664 22.7076 0
767 1 13.7352 1.1418 0
768 1 65.5039 8.04244 0
769 1 61.7589 50.0555 0
770 2 60.4915 73.4805 0
771 1 18.8137 39.989 0
772 1 44.9058 50.9972 0
773 1 40.6754 43.1989 0
774 2 32.6478 25.7344 0
775 1 71.6861 30.5885 0
776 2 43.6227 42.8157 0
777 1 70.416 55.3277 0
778 2 10.4375 63.0696 0
779 1 45.2489 25.2287 0
780 1 17.0987 6.24878 0
781 1 29.6553 35.2321 0
782 1 57.4218 64.8662 0
783 1 60.6795 35.5615 0
784 1 70.8462 50.1467 0
785 2 8.92657 11.309 0
786 1 73.2077 70.0457 0
787 1 20.9117 66.5488 0
788 1 39.8168 54.7874 0
789 1 10.9561 4.36501 0
790 1 52.1391 70.2746 0
791 1 45.9031 13.1252 0
792 1 8.61104 25.0644 0
793 1 25.2796 14.9706 0
794 2 71.3865 16.7247 0
795 2 75.621 14.1681 0
796 2 75.5747 67.8268 0
797 1 44.4272 65.3655 0
798 1 38.4418 19.041 0
799 1 44.2592 76.4458 0
800 1 30.5513 70.4993 0
801 2 6.5024 25.9309 0
802 2 27.9862 45.5529 0
803 2 23.6058 77.1271 0
804 2 52.5772 36.0117 0
805 1 23.8371 71.9235 0
806 1 52.9956 70.8757 0
807 2 39.7894 50.388 0
808 1 50.5316 47.1659 0
809 2 36.311 62.5746 0
810 1 58.4603 76.4765 0
811 1 28.6979 60.974 0
812 2 59.6057 48.2596 0
813 2 46.1762 58.0867 0
814 1 54.3678 31.1525 0
815 2 41.1428 16.9653 0
816 1 28.1009 34.4464 0
817 1 67.7786 75.5819 0
818 2 36.8121 16.0688 0
819 2 45.6413 56.6551 0
820 1 66.8636 69.8331 0
821 1 16.7336 64.835 0
822 1 56.7668 76.7777 0
823 1 17.164 55.7145 0
824 2 35.234 42.3854 0
825 1 29.1567 41.5524 0
826 1 32.825 75.3501 0
827 1 7.32541 26.1722 0
828 1 76.8947 51.1591 0
829 1 72.0911 40.328 0
830 2 47.8124 64.5305 0
831 2 43.3087 4.55471 0
832 1 73.9306 14.3469 0
833 1 24.4768 43.3531 0
834 2 48.6433 5.55758 0
835 1 68.4787 6.51765 0
836 1 58.1436 27.7091 0
837 1 56.3829 41.2092 0
838 1 38.9495 52.8508 0
839 1 16.0713 60.2647 0
840 2 15.7381 46.7152 0
841 1 36.8653 52.5934 0
842 2 11.053 61.1463 0
843 1 5.48405 42.3767 0
844 1 63.5038 21.5959 0
845 2 27.9091 2.24537 0
846 1 49.6488 39.1933 0
847 1 10.9563 57.643 0
848 2 69.0175 47.7477 0
849 1 74.1306 10.9948 0
850 1 67.9994 19.7231 0
851 1 39.438 18.6635 0
852 1 12.1827 1.99555 0
853 1 42.4444 61.5472 0
854 1 37.6921 69.6644 0
855 1 39.5114 25.6123 0
856 2 18.6985 42.0129 0
857 1 57.8416 34.0014 0
858 2 34.4112 28.8921 0
859 1 13.1775 64.7407 0
860 2 2.10692 58.4794 0
861 2 60.185 40.1589 0
862 2 2.9788 69.2502 0
863 1 59.0131 23.796 0
864 1 60.2016 53.85 0
865 2 66.0869 68.065 0
866 1 60.4884 17.2281 0
867 2 31.5656 21.914 0
868 1 37.1735 61.9991 0
869 1 62.1492 20.1971 0
870 1 0.0386682 52.8585 0
871 1 62.7326 26.1318 0
872 1 42.2889 50.7361 0
873 1 50.597 62.5321 0
874 1 3.95309 71.6845 0
875 1 34.1874 57.7575 0
876 2 51.6544 7.91212 0
877 1 13.3076 55.5558 0
878 2 14.8237 16.0032 0
879 1 76.5307 14.0649 0
880 2 31.7207 33.5707 0
881 2 51.9562 29.3068 0
882 2 47.9887 73.5938 0
883 1 25.7602 19.9949 0
884 1 56.0156 36.5924 0
885 1 38.9356 5.02055 0
886 1 37.1274 60.1774 0
887 2 54.7156 50.2958 0
888 1 0.444997 76.5429 0
889 2 59.1192 49.6277 0
890 2 7.76194 25.353 0
891 1 38.1361 10.4936 0
892 1 39.9879 67.9316 0
893 1 30.0281 53.6547 0
894 1 77.0009 14.9936 0
895 2 32.3988 53.0187 0
896 1 37.584 2.61395 0
897 2 35.7052 17.0614 0
898 1 31.0873 43.5809 0
899 1 2.08862 75.7794 0
900 2 38.6647 0.22871 0
901 1 52.2829 41.3957 0
902 1 24.3386 75.285 0
903 1 37.8621 40.4867 0
904 2 0.0614129 37.623 0
905 1 63.6938 62.1229 0
906 1 68.9268 44.7803 0
907 1 3.67494 29.7864 0
908 1 50.6752 23.8075 0
909 1 0.357437 48.7747 0
910 2 1.81135 50.8382 0
911 2 4.5966 4.58169 0
912 2 36.1806 32.7347 0
913 2 31.8688 51.6171 0
914 1 18.4065 12.9112 0
915 2 64.7514 5.51154 0
916 1 3.36224 39.8043 0
917 2 4.98626 33.4237 0
918 2 19.4871 35.4279 0
919 1 8.2311 57.7833 0
920 1 15.8983 47.5655 0
921 1 0.112163 26.5997 0
922 2 50.8375 18.8608 0
923 2 12.3162 24.3166 0
924 1 39.2729 17.5576 0
925 1 66.2827 47.411 0
926 2 35.4338 35.2712 0
927 1 68.9588 77.3944 0
928 1 52.1731 59.0458 0
929 2 52.0628 32.1125 0
930 2 20.0737 15.873 0
931 1 40.7795 47.5514 0
932 1 70.3471 39.1451 0
933 1 34.3736 21.9242 0
934 1 1.98831 60.155 0
935 1 11.3597 50.5631 0
936 2 42.2716 4.66571 0
937 1 14.2709 73.1726 0
938 1 36.6973 67.7234 0
939 2 50.4121 51.28 0
940 1 75.9373 46.8418 0
941 1 77.252 17.6251 0
942 1 37.9839 29.7914 0
943 2 22.3047 16.7223 0
944 2 2.01779 41.9458 0
945 1 40.4761 25.2178 0
946 1 64.5068 67.2346 0
947 2 25.0596 2.10812 0
948 1 39.263 68.7049 0
949 1 26.8695 11.6686 0
950 2 5.12691 9.75837 0
951 1 68.8971 65.5946 0
952 2 52.7313 2.69854 0
953 2 7.75727 44.7866 0
954 2 29.842 62.5673 0
955 1 27.2597 38.5453 0
956 2 58.8973 10.8549 0
957 1 48.3401 23.5236 0
958 2 19.5119 2.8072 0
959 2 73.5929 25.0226 0
960 2 29.1205 66.8965 0
961 1 49.4539 52.1173 0
962 1 24.3352 1.60521 0
963 1 16.322 12.5894 0
964 2 8.64126 9.57525 0
965 2 53.6318 53.7654 0
966 1 0.705612 62.7692 0
967 1 49.8529 35.5487 0
968 1 18.3703 0.0718335 0
969 1 58.0562 23.4141 0
970 2 22.4733 4.74902 0
971 1 21.3079 14.5393 0
972 1 6.89862 25.1569 0
973 1 0.920759 35.8633 0
974 2 0.904671 34.9883 0
975 2 73.0154 65.4104 0
976 2 34.6528 19.9895 0
977 1 36.0006 63.3688 0
978 2 3.22603 77.0339 0
979 2 36.0807 65.8316 0
980 1 72.8654 14.2836 0
981 1 73.67 58.096 0
982 1 7.88073 54.7216 0
983 1 18.4159 24.6934 0
984 1 9.30893 58.0004 0
985 1 34.5417 11.2012 0
986 1 37.9134 52.6089 0
987 2 18.1776 12.1083 0
988 2 42.2244 34.8913 0
989 2 9.90546 34.74 0
990 2 69.8425 51.7423 0
991 2 46.3313 14.7239 0
992 1 62.4379 34.6495 0
993 2 29.1286 5.718 0
994 2 1.90689 55.0955 0
995 1 38.9306 22.2423 0
996 2 54.5785 56.9908 0
997 2 43.5101 30.8376 0
998 2 60.4188 74.9471 0
999 2 39.3419 26.498 0
1000 2 0.560929 49.621 0
1001 1 41.8002 65.4122 0
1002 1 23.5127 34.4684 0
1003 1 9.55116 54.2351 0
1004 1 7.59781 22.4526 0
1005 2 10.7315 23.6729 0
1006 2 67.7973 60.8405 0
1007 1 18.9193 20.3274 0
1008 1 47.8387 16.8318 0
1009 1 31.097 32.987 0
1010 1 11.4559 43.5221 0
1011 2 10.5754 22.2892 0
1012 2 2.3432 23.2767 0
1013 2 65.086 56.0241 0
1014 1 74.1361 15.509 0
1015 1 76.1249 9.39014 0
1016 1 37.1702 47.9917 0
1017 2 68.6797 54.3135 0
1018 1 26.2003 25.0308 0
1019 1 44.312 29.031 0
1020 2 32.5124 6.31019 0
1021 2 15.9541 24.5341 0
1022 1 4.85666 60.8844 0
1023 1 41.1547 9.30835 0
1024 1 9.30347 67.8486 0
1025 1 37.1181 65.8997 0
1026 1 7.9171 40.1805 0
1027 1 47.5157 2.44788 0
1028 1 1.93343 32.9017 0
1029 1 48.9924 18.1393 0
1030 2 46.8336 47.9988 0
1031 2 37.5783 37.01 0
1032 1 16.3847 73.0599 0
1033 1 57.6349 19.2458 0
1034 1 35.2379 29.2487 0
1035 1 65.7886 28.415 0
1036 2 73.6318 45.9376 0
1037 1 31.2001 73.0897 0
1038 1 68.5985 60.5108 0
1039 1 5.4893 31.8582 0
1040 2 64.9888 34.2974 0
1041 1 35.4029 65.2265 0
1042 2 62.7667 68.1818 0
1043 2 60.6091 58.2603 0
1044 1 67.7605 23.4825 0
1045 1 66.7356 23.2411 0
1046 1 41.1197 68.271 0
1047 2 9.81693 47.6841 0
1048 1 53.4896 0.00728256 0
1049 1 59.8529 49.0962 0
1050 2 45.4835 6.36741 0
1051 1 43.5097 31.7916 0
1052 1 66.2358 44.5871 0
1053 2 32.6745 18.489 0
1054 1 55.2385 7.10562 0
1055 2 32.8242 46.6301 0
1056 2 14.6065 45.3041 0
1057 1 12.0099 71.645 0
1058 1 27.404 5.87846 0
1059 1 9.22194 75.2268 0
1060 2 21.9327 41.984 0
1061 1 10.068 23.1329 0
1062 2 16.8853 41.4585 0
1063 1 77.4532 67.7589 0
1064 1 23.2688 5.13746 0
1065 2 29.6989 52.7581 0
1066 1 37.3243 46.2744 0
1067 1 13.9471 10.3552 0
1068 2 35.6129 67.1488 0
1069 1 67.9523 24.508 0
1070 2 8.2148 34.4583 0
1071 2 49.5692 42.7768 0
1072 2 9.37968 48.7162 0
1073 2 16.3757 3.58507 0
1074 2 33.732 45.3297 0
1075 1 75.8889 49.7757 0
1076 1 41.2108 7.58164 0
1077 1 41.7667 32.6323 0
1078 2 71.6728 26.2932 0
1079 2 39.042 10.8282 0
1080 2 29.9284 72.809 0
1081 2 45.9407 48.9457 0
1082 2 6.31798 27.6448 0
1083 2 21.6642 20.0161 0
1084 1 44.2045 57.5093 0
1085 1 19.2056 52.3834 0
1086 1 70.0825 66.9428 0
1087 1 29.5135 72.0224 0
1088 1 44.6864 62.9709 0
1089 2 8.46909 31.7134 0
1090 1 42.9498 34.4714 0
1091 2 27.7184 17.8087 0
1092 1 63.0236 53.6746 0
1093 1 69.1328 32.9319 0
1094 2 43.4882 55.1924 0
1095 1 25.3631 71.1334 0
1096 2 48.2043 18.562 0
1097 1 76.2187 17.7614 0
1098 1 62.6978 43.732 0
1099 1 31.1114 5.00329 0
1100 1 68.4217 1.77878 0
1101 1 74.9069 11.8411 0
1102 1 26.0467 74.8221 0
1103 1 51.3286 70.9955 0
1104 1 47.0215 58.0358 0
1105 1 48.2741 40.0914 0
1106 1 16.4939 71.3576 0
1107 2 45.2672 62.2728 0
1108 1 55.6398 31.2201 0
1109 1 72.7469 24.8834 0
1110 2 14.9441 11.7688 0
1111 1 2.67051 56.8528 0
1112 1 76.1764 18.8093 0
1113 2 75.53 7.66682 0
1114 2 14.18 53.4177 0
1115 2 32.8926 49.4061 0
1116 1 77.2065 64.6835 0
1117 1 66.8366 56.5236 0
1118 1 12.3481 75.4801 0
1119 2 11.2528 64.2669 0
1120 1 41.3167 58.0128 0
1121 2 21.1933 64.2402 0
1122 1 32.0455 32.5236 0
1123 2 23.022 51.8988 0
1124 1 52.6761 61.9303 0
1125 2 14.7588 4.41398 0
1126 2 15.5458 20.137 0
1127 1 74.569 24.0438 0
1128 1 67.2217 52.163 0
1129 1 60.9082 39.6166 0
1130 1 30.5072 47.2526 0
1131 1 62.544 15.3988 0
1132 2 75.8836 63.6682 0
1133 2 56.0031 22.5398 0
1134 2 20.8453 72.0852 0
1135 1 0.812444 68.4793 0
1136 2 51.2723 26.8246 0
1137 1 50.9941 61.4329 0
1138 1 30.4176 13.6808 0
1139 2 57.4898 52.9252 0
1140 2 9.17081 22.8575 0
1141 1 74.8903 65.658 0
1142 1 26.869 52.1877 0
1143 1 48.1712 44.7596 0
1144 2 60.9485 16.463 0
1145 1 38.0344 62.7254 0
1146 1 15.6249 18.8257 0
1147 1 28.2721 25.634 0
1148 1 10.8178 36.7863 0
1149 1 57.5503 29.32 0
1150 2 65.4181 61.1176 0
1151 1 22.0494 3.92814 0
1152 1 59.7311 52.0229 0
1153 1 71.6806 29.545 0
1154 1 13.9072 4.72297 0
1155 2 60.2059 20.3313 0
1156 1 44.5257 32.2223 0
1157 1 12.3691 18.2002 0
1158 2 58.3565 47.9271 0
1159 2 5.58275 70.5226 0
1160 1 33.005 7.7633 0
1161 2 43.8972 56.5717 0
1162 1 15.9466 9.92586 0
1163 2 13.3974 73.0032 0
1164 1 24.0337 58.8357 0
1165 1 20.88 45.503 0
1166 2 14.9222 50.6152 0
1167 1 28.0565 20.3328 0
1168 1 56.3221 64.7237 0
1169 1 19.5933 66.7885 0
1170 2 6.26495 33.6538 0
1171 1 48.5149 33.8188 0
1172 1 22.8989 6.86273 0
1173 1 51.6332 64.0172 0
1174 1 38.9315 29.3078 0
1175 2 62.6092 44.7063 0
1176 1 68.4499 36.5041 0
1177 1 48.4353 69.9322 0
1178 2 61.0945 47.671 0
1179 1 72.395 32.6977 0
1180 1 52.1361 17.8409 0
1181 1 54.2657 22.8767 0
1182 1 60.9847 74.2613 0
1183 2 43.2075 73.4014 0
1184 2 28.1934 21.9831 0
1185 1 17.5069 63.226 0
1186 1 48.9344 49.4272 0
1187 1 73.8919 72.2036 0
1188 2 4.7834 37.7242 0
1189 1 60.679 65.311 0
1190 1 28.2956 51.4111 0
1191 2 72.2782 4.80977 0
1192 1 24.5819 46.9557 0
1193 1 47.6309 17.8897 0
1194 2 16.6817 16.0308 0
1195 1 74.2097 48.8782 0
1196 1 21.8936 49.7495 0
1197 1 35.584 38.8444 0
1198 1 62.5069 76.4545 0
1199 2 57.7632 62.5413 0
1200 1 26.9839 8.86868 0
1201 1 2.9234 73.2293 0
1202 1 5.80086 48.9325 0
1203 2 47.6085 12.2977 0
1204 1 57.3844 56.5765 0
1205 1 66.6358 50.3936 0
1206 1 52.2856 5.02298 0
1207 1 31.7465 62.7877 0
1208 1 75.3373 58.0323 0
1209 2 65.3318 59.7015 0
1210 1 69.6975 31.9942 0
1211 2 24.8912 35.5144 0
1212 1 33.7641 36.2225 0
1213 1 61.1846 68.8627 0
1214 1 61.6457 23.6993 0
1215 1 11.6964 72.6762 0
1216 1 11.1795 49.5014 0
1217 2 67.5503 2.11675 0
1218 2 61.5397 20.9636 0
1219 1 30.2373 15.4241 0
1220 1 61.9355 18.0338 0
1221 1 61.5802 54.9874 0
1222 2 66.3207 74.3462 0
1223 1 42.2818 48.0592 0
1224 1 0.693492 34.1172 0
1225 1 2.84835 25.697 0
1226 2 65.8536 64.9581 0
1227 1 41.4492 56.9765 0
1228 1 76.2348 70.7275 0
1229 2 48.0816 9.24084 0
1230 1 25.5095 49.7792 0
1231 2 53.0066 18.0472 0
1232 1 67.8119 38.1673 0
1233 1 38.5781 58.5917 0
1234 1 1.71889 67.8555 0
1235 1 18.1905 45.9984 0
1236 1 52.2833 63.0737 0
1237 1 37.9136 20.712 0
1238 1 24.6974 7.2335 0
1239 1 12.908 22.7228 0
1240 1 24.4207 62.9341 0
1241 1 76.2449 62.8046 0
1242 1 35.3862 57.6688 0