ITEM: TIMESTEP
0
ITEM: NUMBER OF ATOMS
7200
ITEM: BOX BOUNDS xy xz yz pp pp pp
0.0000000000000000e+00 7.7459666924100006e+01 0.0000000000000000e+00
0.0000000000000000e+00 7.7459666924100006e+01 0.0000000000000000e+00
-1.2909944490000000e-01 1.2909944490000000e-01 0.0000000000000000e+00
ITEM: ATOMS id type x y z
1 1 12.1472 20.1522 0
2 1 14.858 64.0163 0
3 1 75.2168 71.126 0
4 1 20.3643 8.05627 0
5 1 34.5727 55.9614 0
6 1 56.7028 28.6218 0
7 2 5.361 3.38094 0
8 2 64.7185 46.4014 0
9 1 42.1191 56.0983 0
10 2 19.0707 14.6883 0
11 2 25.3932 53.2265 0
12 1 55.1971 11.6006 0
13 2 23.1573 5.97653 0
14 1 46.5599 70.6554 0
15 1 39.4153 31.3001 0
16 1 18.2215 14.9383 0
17 1 31.3701 40.0408 0
18 1 33.8001 5.80345 0
19 1 26.9924 57.7897 0
20 2 44.8707 3.66325 0
21 1 12.1973 65.9459 0
22 1 54.3669 10.8446 0
23 1 75.5913 45.6855 0
24 1 55.9473 66.3336 0
25 1 6.69026 71.0704 0
26 1 21.0956 67.6189 0
27 2 28.9827 63.8213 0
28 1 51.3555 74.2102 0
29 2 22.5024 47.9286 0
30 2 25.3168 32.0803 0
31 1 15.1611 53.3723 0
32 1 51.0498 38.0358 0
33 1 60.777 48.5598 0
34 2 45.3821 9.66056 0
35 1 75.2276 63.1782 0
36 1 30.5679 60.0642 0
37 1 22.2906 61.4694 0
38 1 45.837 19.7432 0
39 1 22.3563 5.62834 0
40 2 24.8268 59.1545 0
41 2 18.4709 64.7255 0
42 1 20.922 1.17152 0
43 1 18.9609 33.5618 0
44 1 34.3741 62.7207 0
45 1 3.37081 34.5482 0
46 1 68.1866 7.58214 0
47 1 73.5705 59.11 0
48 1 44.1118 68.2802 0
49 2 77.2354 4.20991 0
50 1 31.0689 66.7085 0
51 1 1.25418 9.99977 0
52 2 33.1764 24.213 0
53 1 53.574 18.6702 0
54 1 49.6665 30.3096 0
55 1 9.57322 1.00996 0
56 1 45.9416 26.078 0
57 1 67.4785 43.0157 0
58 1 69.8408 69.1346 0
59 1 34.1923 2.14985 0
60 1 28.6729 3.43882 0
61 1 40.4901 75.9653 0
62 1 52.206 45.0659 0
63 1 57.2477 9.93374 0
64 1 50.5834 45.7382 0
65 1 66.9312 73.7075 0
66 2 56.0647 11.4537 0
67 2 40.7004 35.9508 0
68 2 0.862327 29.1521 0
69 1 61.9798 45.3712 0
70 1 8.46253 35.5358 0
71 2 7.49046 42.3221 0
72 1 76.8231 3.40948 0
73 1 6.29967 64.151 0
74 2 41.5543 22.7737 0
75 1 75.5523 53.3515 0
76 1 19.6811 46.9048 0
77 1 25.0467 74.5084 0
78 1 3.59438 15.575 0
79 1 12.6048 73.3667 0
80 1 43.5045 16.5712 0
81 1 55.0256 62.2246 0
82 2 44.3613 16.6124 0
83 1 5.7358 33.0164 0
84 1 33.0558 45.7713 0
85 1 34.5347 20.7719 0
86 2 34.6695 64.7498 0
87 1 71.5125 34.7408 0
88 1 18.4413 54.7418 0
89 1 27.7435 13.0765 0
90 1 37.4503 37.9125 0
91 2 45.9146 41.071 0
92 2 41.2354 56.0607 0
93 1 27.7929 16.8856 0
94 1 33.4933 55.7189 0
95 2 39.1342 56.7224 0
96 1 65.351 1.28134 0
97 1 44.2019 49.0377 0
98 2 2.90956 60.0593 0
99 1 61.8678 48.2155 0
100 2 32.4274 30.7891 0
101 1 47.676 54.439 0
102 1 55.9989 21.5843 0
103 1 56.6674 70.4162 0
104 1 2.73685 60.9176 0
105 2 40.1505 3.03518 0
106 2 30.4285 34.7886 0
107 1 13.2166 31.3737 0
108 1 0.761438 0.884711 0
109 1 35.6788 41.5786 0
110 2 65.1633 25.5341 0
111 1 65.9706 11.9788 0
112 1 34.3064 72.7894 0
113 2 0.345766 60.3829 0
114 2 74.5527 29.4898 0
115 2 30.3175 12.7907 0
116 2 74.7213 53.6479 0
117 1 16.1958 45.8986 0
118 2 46.7718 26.4936 0
119 1 62.7283 0.0795346 0
120 2 5.97226 49.8507 0
121 1 6.21432 3.61493 0
122 1 19.928 33.1019 0
123 2 5.40854 17.7272 0
124 1 46.396 57.2837 0
125 1 31.7202 27.2688 0
126 1 57.9945 52.1851 0
127 1 4.50681 58.9604 0
128 1 14.4414 23.4528 0
129 1 16.4835 52.1559 0
130 1 7.19536 2.14905 0
131 1 59.098 24.9376 0
132 2 31.1314 41.8737 0
133 2 52.7443 6.91683 0
134 1 65.7962 50.9379 0
135 1 31.5886 30.3862 0
136 2 55.221 46.5138 0
137 1 61.7481 56.6608 0
138 2 70.457 48.0451 0
139 1 68.3857 27.26 0
140 1 3.52412 21.8609 0
141 2 48.0649 63.5285 0
142 1 6.5631 22.6311 0
143 2 40.6037 70.0845 0
144 2 47.2875 75.2966 0
145 2 18.2856 52.9453 0
146 1 54.9557 4.061 0
147 1 9.41573 38.9781 0
148 1 46.3725 53.3694 0
149 2 67.9538 49.0897 0
150 1 32.8281 56.5616 0
151 2 29.4752 13.8326 0
152 1 48.8781 63.1753 0
153 2 17.3747 46.3939 0
154 2 31.482 72.2354 0
155 1 70.4705 49.0001 0
156 1 43.5396 10.2783 0
157 1 49.228 71.0871 0
158 1 60.1837 69.2074 0
159 2 10.5161 26.0743 0
160 1 38.1657 17.4314 0
161 1 7.20822 63.5275 0
162 2 72.6212 24.0111 0
163 1 30.618 27.1063 0
164 1 60.222 29.4597 0
165 1 75.671 27.854 0
166 1 1.99526 44.7333 0
167 1 39.2393 0.875518 0
168 1 38.4599 72.8329 0
169 1 56.7473 30.9209 0
170 1 57.3911 0.990993 0
171 2 36.84 61.0974 0
172 2 33.6834 53.7853 0
173 2 43.7912 24.334 0
174 2 27.4993 55.9817 0
175 2 30.9383 26.2667 0
176 1 46.2469 16.2149 0
177 1 19.6381 58.6318 0
178 1 61.8618 61.3371 0
179 1 64.5963 24.8765 0
180 2 33.2169 39.6152 0
181 1 45.2137 27.5996 0
182 1 61.825 58.5705 0
183 2 12.1213 37.3903 0
184 1 5.18798 67.5251 0
185 2 67.1967 29.4667 0
186 1 59.0317 35.0778 0
187 1 39.5396 46.4318 0
188 1 57.3479 47.7655 0
189 2 63.8248 53.0117 0
190 1 23.2094 4.03899 0
191 1 71.7898 8.13917 0
192 1 65.4977 10.2687 0
193 2 10.8157 41.6116 0
194 2 68.6228 69.0722 0
195 1 11.1086 3.31122 0
196 2 49.5372 54.9382 0
197 2 20.2167 9.97697 0
198 1 13.3725 61.2209 0
199 2 75.7149 66.2081 0
200 1 59.9059 27.7154 0
201 2 34.684 1.40141 0
202 2 74.6125 55.2212 0
203 1 52.3654 65.6745 0
204 1 29.6704 3.79408 0
205 1 56.1343 26.0768 0
206 2 35.7674 36.9805 0
207 2 13.9775 9.51972 0
208 1 33.7129 14.0473 0
209 1 12.1983 11.5977 0
210 2 5.35075 20.4683 0
211 1 17.2009 8.12273 0
212 2 24.7784 6.25734 0
213 2 56.0424 28.0053 0
214 1 71.0886 57.7788 0
215 2 66.9838 22.4093 0
216 1 20.6318 73.6492 0
217 1 59.5477 34.1337 0
218 2 54.7131 58.5336 0
219 2 68.003 42.2962 0
220 2 43.0066 64.0378 0
221 1 18.9866 45.3255 0
222 1 45.0114 12.4191 0
223 2 39.0838 67.7912 0
224 2 27.7596 68.7234 0
225 1 32.4344 23.7217 0
226 2 66.4565 57.1703 0
227 2 6.02523 16.3905 0
228 1 34.5499 9.29988 0
229 1 71.0178 26.8478 0
230 1 32.2315 74.4533 0
231 1 10.727 34.3171 0
232 1 42.0773 12.8355 0
233 1 34.8998 7.62926 0
234 1 76.0924 8.33224 0
235 1 60.7931 59.0632 0
236 2 44.8116 70.3753 0
237 1 77.2004 62.2743 0
238 2 9.28575 21.4541 0
239 1 58.589 2.77104 0
240 2 61.6359 46.246 0
241 1 47.3864 66.6846 0
242 1 18.522 30.6172 0
243 1 7.255 56.3301 0
244 1 61.2245 64.2901 0
245 1 11.022 30.8274 0
246 1 2.03844 35.5491 0
247 1 65.6754 49.8754 0
248 1 12.2686 0.841588 0
249 2 50.3906 41.2061 0
250 1 28.9994 9.36242 0
251 2 57.6917 50.2357 0
252 2 65.7743 23.2872 0
253 1 19.8534 17.5717 0
254 1 54.404 25.0346 0
255 1 65.5046 42.8858 0
256 1 31.4006 8.53497 0
257 1 22.1538 57.8955 0
258 1 26.1797 38.7056 0
259 1 55.5778 56.7988 0
260 2 44.0141 53.8154 0
261 2 26.389 62.6832 0
262 1 24.3683 33.7855 0
263 2 12.5927 34.7297 0
264 2 71.467 59.9418 0
265 1 77.0302 46.6566 0
266 1 38.1304 44.743 0
267 2 61.6081 24.5851 0
268 2 56.6593 45.916 0
269 1 48.1137 21.0062 0
270 2 9.09034 47.0612 0
271 2 22.5126 33.6156 0
272 2 20.4183 14.2682 0
273 1 14.9401 65.0954 0
274 1 32.285 49.9988 0
275 1 8.59081 48.9797 0
276 1 75.3223 10.2167 0
277 2 15.5657 71.3476 0
278 1 7.57629 17.4449 0
279 1 4.51407 44.3522 0
280 1 20.3905 35.8412 0
281 1 30.6442 38.5009 0
282 2 75.9205 26.4161 0
283 1 76.506 55.8 0
284 2 54.2361 38.3422 0
285 1 71.0432 52.8734 0
286 1 11.2962 63.4125 0
287 1 19.122 76.7603 0
288 2 75.6789 3.83594 0
289 2 21.3749 39.1972 0
290 2 69.2174 76.4238 0
291 1 35.1883 22.5556 0
292 1 27.7405 58.55 0
293 1 47.392 19.0063 0
294 1 40.3658 2.19141 0
295 1 69.9367 3.31885 0
296 2 74.1576 8.46601 0
297 1 40.3279 59.8116 0
298 1 72.5326 35.1097 0
299 2 49.279 36.549 0
300 1 39.1778 43.7652 0
301 1 73.5011 19.7407 0
302 1 50.9017 35.2115 0
303 1 20.4379 32.1669 0
304 1 60.5457 72.391 0
305 2 59.1387 75.9391 0
306 1 63.0641 52.5164 0
307 2 73.3685 38.793 0
308 1 41.5732 5.24696 0
309 2 24.9627 16.862 0
310 2 13.3742 13.0059 0
311 1 29.3448 49.5718 0
312 1 67.3684 61.6436 0
313 1 74.7149 76.1103 0
314 1 40.5407 45.96 0
315 2 56.3824 31.772 0
316 2 39.5302 63.4063 0
317 1 50.9013 20.5949 0
318 2 7.05222 31.279 0
319 1 30.9512 25.3915 0
320 1 36.1405 61.6741 0
321 1 58.6793 68.389 0
322 2 73.9877 11.86 0
323 2 25.1033 63.5336 0
324 1 64.402 41.5139 0
325 1 41.2873 6.29261 0
326 1 9.77479 58.896 0
327 1 48.6882 54.7795 0
328 1 0.806692 37.0299 0
329 1 41.6188 42.6767 0
330 2 51.7707 34.9181 0
331 2 70.1079 4.16984 0
332 1 59.449 28.7249 0
333 1 36.9403 12.2526 0
334 1 17.0702 34.7971 0
335 1 20.6185 38.7306 0
336 2 72.3002 74.4019 0
337 1 34.6898 33.6714 0
338 2 17.0478 1.5339 0
339 1 42.5426 68.4596 0
340 1 18.8587 57.8933 0
341 2 74.0694 44.1852 0
342 1 67.0343 5.87151 0
343 2 56.4058 49.8703 0
344 2 22.8224 66.0312 0
345 1 7.95858 27.7808 0
346 1 17.4971 71.781 0
347 1 35.4143 56.5941 0
348 1 56.5297 18.8722 0
349 1 33.699 20.1149 0
350 1 37.1607 31.1248 0
351 1 17.9458 53.7547 0
352 1 47.8608 30.7425 0
353 1 75.2958 25.8094 0
354 2 22.5687 26.2826 0
355 2 43.427 18.2357 0
356 2 11.8212 2.78262 0
357 1 68.4704 67.5068 0
358 1 24.2631 3.72073 0
359 1 22.2871 14.5351 0
360 2 45.2097 31.2844 0
361 2 48.1227 67.2097 0
362 1 27.0727 74.6225 0
363 2 38.0196 73.5755 0
364 1 13.1151 66.526 0
365 2 8.99101 57.1703 0
366 1 24.9266 50.6562 0
367 2 19.7967 23.4463 0
368 2 51.34 54.963 0
369 2 65.2073 70.5805 0
370 1 3.47799 28.3269 0
371 1 46.0739 73.4826 0
372 2 40.4661 9.92927 0
373 1 10.4909 31.771 0
374 2 66.5972 41.3123 0
375 1 52.2288 52.7865 0
376 2 75.4882 43.1533 0
377 2 58.1958 38.1691 0
378 1 20.4391 63.7606 0
379 1 13.876 20.263 0
380 1 9.82688 62.4733 0
381 1 26.6868 23.3314 0
382 1 30.717 23.6553 0
383 1 9.58514 11.7778 0
384 1 34.9654 51.6381 0
385 1 28.4333 77.1249 0
386 1 54.8983 40.4317 0
387 1 59.5472 76.6874 0
388 2 55.9272 57.8067 0
389 1 24.6128 56.683 0
390 1 29.4601 12.9637 0
391 2 59.8618 26.7839 0
392 2 30.1007 10.143 0
393 2 38.8241 64.9859 0
394 1 10.2017 73.7656 0
395 1 53.1755 21.9349 0
396 1 13.7506 70.4563 0
397 1 46.7859 17.1599 0
398 1 45.524 70.8668 0
399 1 69.9948 18.0928 0
400 1 59.849 74.1877 0
401 1 44.6031 11.4529 0
402 2 56.6 16.9571 0
403 1 38.2928 51.5869 0
404 1 69.3277 70.819 0
405 2 73.8101 76.2498 0
406 1 34.212 19.1017 0
407 2 45.6845 21.7436 0
408 1 63.5127 30.4492 0
409 1 18.6609 61.3154 0
410 2 67.434 16.7477 0
411 2 66.5583 36.5777 0
412 1 58.9163 38.6735 0
413 1 7.09937 36.605 0
414 1 71.3112 48.2485 0
415 1 7.09075 41.5783 0
416 2 73.7551 62.3665 0
417 2 75.0955 12.7496 0
418 1 54.2968 30.0661 0
419 2 56.6578 47.2437 0
420 2 24.8382 55.8694 0
421 1 60.2804 19.406 0
422 1 2.01895 71.3973 0
423 1 4.16106 12.0697 0
424 1 60.7574 26.9983 0
425 1 58.8379 50.5105 0
426 1 56.1015 73.7726 0
427 2 39.5367 14.8132 0
428 1 51.5203 50.2375 0
429 1 59.1403 71.0708 0
430 1 36.6569 37.0972 0
431 1 0.0968456 29.5803 0
432 1 63.4012 49.0583 0
433 1 29.1643 69.4998 0
434 1 1.83301 42.8282 0
435 1 64.0667 34.2157 0
436 2 67.991 39.0122 0
437 2 43.7672 59.4249 0
438 1 38.8994 61.7588 0
439 2 41.2193 12.5494 0
440 1 43.3669 43.6135 0
441 2 66.6555 15.2335 0
442 1 9.62636 37.9331 0
443 1 54.6077 16.8195 0
444 1 16.7418 75.3718 0
445 2 69.4225 67.5273 0
446 1 61.6835 42.1816 0
447 1 26.9945 70.8989 0
448 1 46.933 37.6207 0
449 1 37.185 73.272 0
450 2 48.1325 59.7401 0
451 2 6.56218 61.6643 0
452 1 66.6536 11.1611 0
453 1 28.6577 76.0639 0
454 2 62.6861 29.9789 0
455 2 26.5348 67.9616 0
456 1 11.4137 44.6023 0
457 2 18.4675 1.817 0
458 1 38.011 77.1424 0
459 2 15.6178 56.7406 0
460 1 5.38771 4.29884 0
461 2 27.278 27.0226 0
462 1 45.7881 24.2759 0
463 1 75.8893 69.6865 0
464 1 9.08892 47.9373 0
465 2 40.6656 45.106 0
466 1 21.7333 12.8688 0
467 2 11.5245 1.35091 0
468 1 19.4002 36.325 0
469 1 1.87659 2.17039 0
470 1 61.8188 10.5149 0
471 2 73.9864 40.8742 0
472 1 25.5657 43.0807 0
473 1 61.6434 65.8489 0
474 1 33.5057 54.6528 0
475 1 22.5089 59.7798 0
476 2 38.9205 32.041 0
477 1 60.6047 11.6563 0
478 2 33.1545 74.4548 0
479 1 33.3818 22.3101 0
480 1 19.8719 25.7037 0
481 1 7.18025 18.6072 0
482 1 10.9245 25.2716 0
483 2 1.08857 1.69981 0
484 1 14.4123 38.3046 0
485 1 21.3387 57.1955 0
486 1 7.07988 4.64057 0
487 2 70.9571 10.3887 0
488 1 58.9844 5.42929 0
489 1 52.373 15.2271 0
490 1 35.4255 31.0978 0
491 1 30.5732 42.6082 0
492 2 61.2262 9.86247 0
493 1 73.332 8.98055 0
494 1 67.5826 32.0252 0
495 2 22.5244 49.192 0
496 2 52.7677 42.1287 0
497 2 40.6793 6.88788 0
498 1 23.5351 25.9291 0
499 1 35.8628 74.4015 0
500 1 2.64005 4.17799 0
501 2 45.4896 43.4392 0
502 1 16.722 24.806 0
503 1 50.2649 9.81792 0
504 1 37.0605 32.7264 0
505 2 26.5609 77.0917 0
506 2 17.5628 65.2282 0
507 1 42.0216 37.3578 0
508 1 12.9399 32.7863 0
509 1 28.9532 24.7848 0
510 1 7.01665 38.7609 0
511 1 69.3057 26.708 0
512 1 54.52 53.3678 0
513 1 11.8628 34.2412 0
514 1 25.3488 64.4038 0
515 2 61.4035 11.3364 0
516 2 11.4235 38.7021 0
517 2 74.4331 74.5768 0
518 2 19.1811 54.2754 0
519 2 33.3299 1.88037 0
520 1 74.4452 37.1171 0
521 1 42.0841 24.3979 0
522 2 24.3903 66.1409 0
523 1 77.2055 12.2762 0
524 1 70.4692 34.6512 0
525 1 22.7553 0.00973822 0
526 2 76.5557 22.3743 0
527 1 49.4364 26.1261 0
528 2 74.5041 5.11511 0
529 2 35.2223 45.2201 0
530 1 7.8889 59.5485 0
531 2 76.3747 68.9569 0
532 2 32.1983 60.8987 0
533 1 72.8068 5.43962 0
534 1 34.5087 27.1389 0
535 1 29.0668 19.2078 0
536 1 32.6148 65.8681 0
537 1 35.0531 47.8253 0
538 2 16.3959 21.6735 0
539 2 46.0484 76.8392 0
540 1 60.8593 40.6585 0
541 2 24.9202 8.10983 0
542 1 51.2031 56.7798 0
543 2 69.6537 55.5201 0
544 2 51.9783 10.4713 0
545 1 28.3015 22.8361 0
546 1 34.3143 3.21116 0
547 1 10.179 14.3755 0
548 2 23.602 3.15273 0
549 2 65.3989 21.8728 0
550 2 5.23254 39.4072 0
551 1 30.3436 8.2844 0
552 2 70.5422 40.245 0
553 2 29.5395 44.9185 0
554 1 51.6756 62.2901 0
555 1 50.2808 57.28 0
556 1 73.0297 68.063 0
557 1 62.0449 53.9061 0
558 1 2.5911 68.5375 0
559 1 72.6153 36.1629 0
560 2 21.4246 61.4972 0
561 1 5.61687 0.688921 0
562 2 4.48785 11.2108 0
563 2 54.075 48.8213 0
564 1 70.1488 68.0941 0
565 2 21.7829 1.37567 0
566 2 18.1644 23.8186 0
567 1 48.8851 42.1166 0
568 2 22.8363 74.0873 0
569 2 15.6747 27.5229 0
570 1 73.1288 34.2159 0
571 1 0.415659 3.53868 0
572 2 6.67487 48.5311 0
573 2 0.0238541 44.8544 0
574 1 3.79267 69.1015 0
575 1 18.2673 7.70067 0
576 1 16.4505 63.1482 0
577 1 43.3512 50.4871 0
578 2 67.6307 34.25 0
579 2 45.8933 69.1022 0
580 1 62.6984 42.623 0
581 1 6.64478 60.7594 0
582 2 68.6794 59.606 0
583 2 64.117 58.609 0
584 2 33.4266 65.5438 0
585 1 61.0385 77.361 0
586 1 48.6882 58.6638 0
587 2 14.6694 21.7577 0
588 1 49.5641 5.18354 0
589 2 53.7043 10.2811 0
590 1 24.6264 73.5255 0
591 1 56.4089 6.47082 0
592 1 48.5839 74.2976 0
593 1 44.0583 13.0788 0
594 1 59.8404 63.3111 0
595 1 72.2171 65.3938 0
596 2 7.08013 1.27801 0
597 1 3.52263 43.9902 0
598 1 69.068 9.17324 0
599 1 2.67415 50.9792 0
600 1 0.20439 47.5144 0
601 2 42.1059 36.108 0
602 1 62.2021 14.3591 0
603 2 71.1506 50.8492 0
604 2 62.2916 16.4869 0
605 1 52.4068 69.24 0
606 1 41.5736 4.0779 0
607 1 76.2914 1.36433 0
608 2 1.38136 40.2818 0
609 2 40.8504 0.440245 0
610 1 7.8174 49.7565 0
611 1 53.8717 58.7476 0
612 1 76.7045 6.22397 0
613 1 76.9844 23.1539 0
614 2 50.4732 28.4786 0
615 1 34.5411 38.7887 0
616 1 39.7137 16.0875 0
617 1 69.0677 2.63547 0
618 2 12.0104 42.6962 0
619 2 55.2055 42.3359 0
620 2 70.8854 73.9195 0
621 2 58.4748 35.7506 0
622 1 60.2098 18.2632 0
623 1 37.4414 11.3259 0
624 2 20.4623 54.8139 0
625 1 26.9714 76.3116 0
626 1 73.7669 29.1491 0
627 2 2.32064 25.0255 0
628 1 28.7046 58.1092 0
629 2 77.4165 25.544 0
630 1 29.1205 73.0811 0
631 1 56.89 37.1643 0
632 1 21.6117 65.0517 0
633 2 25.5465 72.0189 0
634 1 18.8031 50.6727 0
635 2 41.4341 43.6458 0
636 2 37.0505 40.717 0
637 1 11.2089 11.0654 0
638 1 67.3199 40.8219 0
639 1 70.2491 46.3019 0
640 1 0.170706 53.9366 0
641 1 36.4499 33.6354 0
642 1 9.69835 33.8206 0
643 1 50.2508 44.7246 0
644 2 19.3078 27.2872 0
645 1 56.944 52.3187 0
646 1 46.238 47.0519 0
647 2 23.6955 10.4204 0
648 1 64.2978 12.4068 0
649 2 10.7314 69.1085 0
650 2 47.1433 61.9546 0
651 1 46.1238 12.1856 0
652 1 29.5889 70.9599 0
653 2 13.6224 23.1964 0
654 2 10.3131 3.74183 0
655 1 5.54582 51.8202 0
656 1 72.8593 53.8683 0
657 1 33.7711 46.5557 0
658 1 71.5822 13.2216 0
659 2 0.874078 66.2124 0
660 1 26.7848 35.5974 0
661 1 37.3165 9.806 0
662 1 32.7312 60.0707 0
663 1 10.6897 28.7233 0
664 1 58.4222 75.3941 0
665 2 49.2678 76.9001 0
666 2 12.7946 58.2518 0
667 1 26.377 73.8139 0
668 2 7.73812 76.1946 0
669 1 4.31031 9.24669 0
670 2 43.9275 37.7219 0
671 2 37.2793 17.4721 0
672 1 9.96701 19.5847 0
673 1 6.91983 16.5934 0
674 1 32.6945 42.5521 0
675 2 4.88948 58.1499 0
676 2 37.9955 6.29119 0
677 1 41.3719 54.0317 0
678 1 53.7659 39.0896 0
679 1 46.6731 69.555 0
680 1 31.73 53.6098 0
681 1 26.3317 54.0387 0
682 1 62.44 59.5195 0
683 1 18.0664 59.3585 0
684 1 64.4116 68.9397 0
685 2 35.9259 18.666 0
686 1 50.3901 6.20463 0
687 1 41.5526 18.8626 0
688 2 53.5963 73.6249 0
689 1 72.0137 62.422 0
690 1 66.0351 72.2327 0
691 1 41.788 39.9377 0
692 2 59.9204 44.0695 0
693 1 71.3051 76.9188 0
694 2 53.7105 64.2785 0
695 1 42.2895 11.7697 0
696 2 35.6153 47.103 0
697 1 25.6693 13.3099 0
698 1 8.34739 3.45238 0
699 1 66.6972 13.9152 0
700 1 71.9973 46.9356 0
701 1 64.1446 31.3 0
702 1 63.6509 65.2697 0
703 2 71.9664 2.19525 0
704 2 8.25358 61.2961 0
705 2 4.90196 7.2621 0
706 1 52.2753 51.7292 0
707 2 59.7532 38.439 0
708 1 50.3734 43.0872 0
709 1 51.6881 73.2007 0
710 2 60.2983 28.5675 0
711 1 56.0195 54.1536 0
712 2 62.8176 32.7362 0
713 2 68.4338 70.4676 0
714 2 0.625436 64.8788 0
715 1 45.2734 18.829 0
716 1 76.4804 29.8783 0
717 1 29.7842 63.4714 0
718 1 14.2249 3.67774 0
719 1 53.2954 36.9336 0
720 2 49.1749 38.4299 0
721 2 66.8357 39.8442 0
722 1 49.0831 7.95415 0
723 2 39.9366 75.3241 0
724 2 10.3826 59.5192 0
725 1 50.7023 39.2059 0
726 1 8.19551 29.9833 0
727 2 12.8934 1.4649 0
728 1 67.5044 55.5388 0
729 2 21.624 59.7325 0
730 1 32.8078 27.478 0
731 2 16.6836 36.4216 0
732 1 16.3454 54.2551 0
733 1 29.8576 29.5401 0
734 2 66.4546 46.406 0
735 1 66.7205 67.2663 0
736 1 47.8518 49.3807 0
737 2 4.15549 45.756 0
738 1 13.699 34.4873 0
739 1 18.0431 37.5352 0
740 1 48.4652 37.9374 0
741 2 57.1905 55.6863 0
742 1 58.9715 37.6141 0
743 1 27.1694 62.1922 0
744 2 72.7871 19.1241 0
745 1 23.0655 72.7428 0
746 1 35.0892 10.2025 0
747 1 47.5628 76.1431 0
748 2 43.1382 69.9468 0
749 2 22.3599 24.5054 0
750 1 55.3461 35.0794 0
751 1 57.7738 40.1999 0
752 2 2.40217 70.5087 0
753 1 53.0475 39.8519 0
754 2 21.7253 15.2738 0
755 1 24.0595 49.9744 0
756 2 49.4404 75.9432 0
757 1 48.3685 19.4052 0
758 1 6.03373 9.73769 0
759 1 61.7471 47.1194 0
760 1 12.2013 10.5336 0
761 1 69.8813 71.7132 0
762 1 15.2221 57.5176 0
763 2 77.1345 7.02814 0
764 1 75.1416 57.0856 0
765 2 47.0568 56.7305 0
766 1 63.2303 22.7117 0
767 1 13.686 1.1219 0
768 1 65.4111 8.03137 0
769 1 61.7779 50.0382 0
770 2 60.4914 73.5466 0
771 1 18.8661 40.0741 0
772 1 44.9477 51.0916 0
773 1 40.6826 43.2009 0
774 2 32.6431 25.7514 0
775 1 71.7042 30.6291 0
776 2 43.619 42.7786 0
777 1 70.4741 55.2789 0
778 2 10.4018 63.1332 0
779 1 45.2486 25.2685 0
780 1 17.0765 6.22459 0
781 1 29.6058 35.1291 0
782 1 57.461 64.8295 0
783 1 60.6263 35.5734 0
784 1 70.8068 50.03 0
785 2 8.80503 11.3587 0
786 1 73.2339 70.1177 0
787 1 20.9371 66.5564 0
788 1 39.7977 54.7712 0
789 1 10.9631 4.36518 0
790 1 52.167 70.3039 0
791 1 45.8068 13.227 0
792 1 8.63299 25.0513 0
793 1 25.2332 14.9265 0
794 2 71.3807 16.7526 0
795 2 75.6003 14.1819 0
796 2 75.608 67.8188 0
797 1 44.4453 65.3563 0
798 1 38.4271 19.0375 0
799 1 44.2804 76.4255 0
800 1 30.574 70.5011 0
801 2 6.48619 25.9308 0
802 2 28.0828 45.5731 0
803 2 23.6049 77.149 0
804 2 52.5898 36.0082 0
805 1 23.7899 71.9511 0
806 1 53.0738 70.8435 0
807 2 39.8298 50.3891 0
808 1 50.4798 47.1444 0
809 2 36.3474 62.5054 0
810 1 58.4843 76.5086 0
811 1 28.677 61.0395 0
812 2 59.6919 48.3041 0
813 2 46.1826 58.1434 0
814 1 54.3349 31.1478 0
815 2 41.0911 16.9577 0
816 1 28.0718 34.4183 0
817 1 67.7626 75.6457 0
818 2 36.7872 16.0905 0
819 2 45.6935 56.7308 0
820 1 66.9093 69.8319 0
821 1 16.7152 64.8442 0
822 1 56.7735 76.7821 0
823 1 17.1672 55.712 0
824 2 35.2861 42.3715 0
825 1 29.1747 41.568 0
826 1 32.839 75.3056 0
827 1 7.33149 26.1582 0
828 1 76.8567 51.0697 0
829 1 72.1294 40.2611 0
830 2 47.8383 64.5273 0
831 2 43.3074 4.56537 0
832 1 73.9269 14.3545 0
833 1 24.5487 43.4125 0
834 2 48.6737 5.55221 0
835 1 68.4142 6.51553 0
836 1 58.1568 27.6632 0
837 1 56.369 41.2564 0
838 1 39.0014 52.7966 0
839 1 16.0833 60.3055 0
840 2 15.7813 46.6815 0
841 1 36.9 52.5511 0
842 2 11.0369 61.186 0
843 1 5.55245 42.3629 0
844 1 63.4731 21.6288 0
845 2 27.9261 2.23986 0
846 1 49.5618 39.2648 0
847 1 10.9409 57.647 0
848 2 69.0464 47.651 0
849 1 74.0906 10.9989 0
850 1 67.9519 19.7493 0
851 1 39.4301 18.6439 0
852 1 12.1604 1.95595 0
853 1 42.4345 61.5277 0
854 1 37.6954 69.614 0
855 1 39.4947 25.6439 0
856 2 18.7212 42.0345 0
857 1 57.8124 33.9742 0
858 2 34.4253 28.8357 0
859 1 13.1191 64.7821 0
860 2 2.10539 58.5014 0
861 2 60.17 40.1206 0
862 2 2.96686 69.2936 0
863 1 59.0035 23.8272 0
864 1 60.2954 53.7967 0
865 2 66.1274 68.0602 0
866 1 60.5118 17.2102 0
867 2 31.5728 21.9024 0
868 1 37.1631 61.9542 0
869 1 62.1287 20.1781 0
870 1 0.010168 52.7125 0
871 1 62.7487 26.1271 0
872 1 42.3363 50.7751 0
873 1 50.6349 62.5827 0
874 1 3.93255 71.7171 0
875 1 34.0815 57.7917 0
876 2 51.6163 7.91825 0
877 1 13.3218 55.5557 0
878 2 14.7561 16.028 0
879 1 76.5003 14.0837 0
880 2 31.7165 33.6046 0
881 2 51.9287 29.3257 0
882 2 48.0034 73.6279 0
883 1 25.7156 19.9679 0
884 1 56.0036 36.5874 0
885 1 38.9368 5.05727 0
886 1 37.0456 60.1351 0
887 2 54.7659 50.2797 0
888 1 0.411475 76.5758 0
889 2 59.1707 49.679 0
890 2 7.79208 25.3754 0
891 1 38.1465 10.5098 0
892 1 39.96 67.9621 0
893 1 30.0141 53.7132 0
894 1 76.9888 15.0132 0
895 2 32.4363 53.037 0
896 1 37.5664 2.62725 0
897 2 35.6642 17.0273 0
898 1 31.1021 43.5983 0
899 1 2.05777 75.8144 0
900 2 38.6573 0.261329 0
901 1 52.2785 41.4071 0
902 1 24.3373 75.3041 0
903 1 37.8997 40.5409 0
904 2 0.139847 37.643 0
905 1 63.7393 62.0544 0
906 1 68.9435 44.6727 0
907 1 3.74397 29.8383 0
908 1 50.7377 23.8307 0
909 1 0.368069 48.6501 0
910 2 1.81504 50.7415 0
911 2 4.52822 4.61077 0
912 2 36.1831 32.7776 0
913 2 31.9559 51.6436 0
914 1 18.2944 12.9098 0
915 2 64.7176 5.47196 0
916 1 3.44211 39.8079 0
917 2 4.96485 33.469 0
918 2 19.559 35.4465 0
919 1 8.22849 57.7874 0
920 1 15.9257 47.6246 0
921 1 0.120868 26.6196 0
922 2 50.7934 18.9489 0
923 2 12.3357 24.3617 0
924 1 39.2742 17.5595 0
925 1 66.2288 47.2437 0
926 2 35.4568 35.3001 0
927 1 68.8947 77.4206 0
928 1 52.1491 59.0375 0
929 2 52.0814 32.1534 0
930 2 20.0114 15.8456 0
931 1 40.8438 47.5559 0
932 1 70.3961 39.0592 0
933 1 34.3576 21.8804 0
934 1 1.99705 60.1504 0
935 1 11.3908 50.5948 0
936 2 42.2043 4.67833 0
937 1 14.2856 73.1197 0
938 1 36.6955 67.7095 0
939 2 50.4459 51.2869 0
940 1 75.9308 46.7828 0
941 1 77.2089 17.6065 0
942 1 37.9483 29.7792 0
943 2 22.3021 16.7076 0
944 2 2.07783 41.9402 0
945 1 40.4835 25.3006 0
946 1 64.5426 67.2209 0
947 2 25.0544 2.0533 0
948 1 39.2162 68.6992 0
949 1 26.8431 11.617 0
950 2 5.07334 9.7851 0
951 1 68.9513 65.6174 0
952 2 52.6386 2.75413 0
953 2 7.83917 44.7981 0
954 2 29.8839 62.5735 0
955 1 27.2463 38.5366 0
956 2 58.8482 10.9791 0
957 1 48.3687 23.59 0
958 2 19.4719 2.79168 0
959 2 73.5478 25.1455 0
960 2 29.154 66.9566 0
961 1 49.5031 52.0962 0
962 1 24.2898 1.59164 0
963 1 16.2765 12.5844 0
964 2 8.60462 9.59186 0
965 2 53.723 53.8073 0
966 1 0.733562 62.7959 0
967 1 49.8949 35.5586 0
968 1 18.3552 0.0645018 0
969 1 58.0259 23.3819 0
970 2 22.507 4.65893 0
971 1 21.2461 14.5132 0
972 1 6.87149 25.1636 0
973 1 0.955245 35.8828 0
974 2 1.03542 35.0104 0
975 2 73.07 65.4318 0
976 2 34.5988 19.9017 0
977 1 35.9822 63.3139 0
978 2 3.13187 77.0725 0
979 2 36.086 65.8119 0
980 1 72.8884 14.2988 0
981 1 73.7216 58.0746 0
982 1 7.88533 54.7065 0
983 1 18.4263 24.6613 0
984 1 9.28514 57.9652 0
985 1 34.5381 11.1524 0
986 1 37.9565 52.6033 0
987 2 18.1099 12.062 0
988 2 42.1504 34.906 0
989 2 9.93487 34.7803 0
990 2 69.9208 51.7702 0
991 2 46.2795 14.8011 0
992 1 62.387 34.6239 0
993 2 29.1376 5.69504 0
994 2 1.86889 54.94 0
995 1 38.9077 22.2266 0
996 2 54.6739 56.943 0
997 2 43.5188 30.8579 0
998 2 60.3937 74.9607 0
999 2 39.3477 26.5185 0
1000 2 0.535702 49.5239 0
1001 1 41.7994 65.3914 0
1002 1 23.4814 34.4382 0
1003 1 9.54733 54.2509 0
1004 1 7.62086 22.4784 0
1005 2 10.8253 23.6995 0
1006 2 67.8512 60.8864 0
1007 1 18.8701 20.326 0
1008 1 47.8115 16.8746 0
1009 1 31.119 32.9547 0
1010 1 11.565 43.4921 0
1011 2 10.5467 22.2864 0
1012 2 2.35413 23.3039 0
1013 2 65.1318 55.9494 0
1014 1 74.1229 15.5263 0
1015 1 76.0683 9.39787 0
1016 1 37.1824 47.951 0
1017 2 68.8264 54.2463 0
1018 1 26.1984 25.0064 0
1019 1 44.3417 29.0406 0
1020 2 32.5101 6.26771 0
1021 2 15.9239 24.5135 0
1022 1 4.8622 60.8486 0
1023 1 41.1127 9.32655 0
1024 1 9.31183 67.769 0
1025 1 37.1009 65.8475 0
1026 1 8.03073 40.1377 0
1027 1 47.4488 2.55999 0
1028 1 1.95512 32.9355 0
1029 1 49.0065 18.1526 0
1030 2 46.869 48.0449 0
1031 2 37.5503 36.9899 0
1032 1 16.3887 73.1082 0
1033 1 57.5574 19.1848 0
1034 1 35.2556 29.2585 0
1035 1 65.8271 28.4254 0
1036 2 73.6073 45.8812 0
1037 1 31.1626 73.0757 0
1038 1 68.6304 60.4883 0
1039 1 5.50615 31.9165 0
1040 2 64.9812 34.2805 0
1041 1 35.4104 65.2326 0
1042 2 62.789 68.1492 0
1043 2 60.6397 58.2017 0
1044 1 67.7114 23.4918 0
1045 1 66.6871 23.2792 0
1046 1 41.1101 68.1862 0
1047 2 9.94676 47.7065 0
1048 1 53.4946 77.454 0
1049 1 59.8701 49.1646 0
1050 2 45.5002 6.37237 0
1051 1 43.5135 31.8007 0
1052 1 66.1996 44.5099 0
1053 2 32.6193 18.4661 0
1054 1 55.2136 7.14462 0
1055 2 32.8877 46.6603 0
1056 2 14.669 45.2624 0
1057 1 11.9804 71.6771 0
1058 1 27.4072 5.85896 0
1059 1 9.22783 75.2463 0
1060 2 21.9474 41.9982 0
1061 1 10.141 23.1858 0
1062 2 16.923 41.4436 0
1063 1 0.0240721 67.8213 0
1064 1 23.2742 5.1029 0
1065 2 29.7542 52.8652 0
1066 1 37.3987 46.2408 0
1067 1 13.9547 10.4105 0
1068 2 35.6049 67.1285 0
1069 1 67.9051 24.5121 0
1070 2 8.21034 34.4193 0
1071 2 49.548 42.7809 0
1072 2 9.42983 48.7169 0
1073 2 16.3553 3.55427 0
1074 2 33.8031 45.3004 0
1075 1 75.9486 49.6632 0
1076 1 41.2533 7.55921 0
1077 1 41.7357 32.6317 0
1078 2 71.715 26.3446 0
1079 2 39.0232 10.8173 0
1080 2 29.9548 72.8052 0
1081 2 45.9557 48.9688 0
1082 2 6.3055 27.6303 0
1083 2 21.5702 20.0629 0
1084 1 44.1841 57.5316 0
1085 1 19.1975 52.341 0
1086 1 70.1484 66.9788 0
1087 1 29.5355 72.0334 0
1088 1 44.6813 63.0293 0
1089 2 8.49733 31.6732 0
1090 1 42.914 34.4868 0
1091 2 27.6871 17.7639 0
1092 1 63.1395 53.5995 0
1093 1 69.092 32.967 0
1094 2 43.5425 55.2002 0
1095 1 25.3194 71.1494 0
1096 2 48.1919 18.5501 0
1097 1 76.1755 17.7913 0
1098 1 62.6737 43.7339 0
1099 1 31.092 4.98084 0
1100 1 68.3964 1.79884 0
1101 1 74.8807 11.8682 0
1102 1 26.0437 74.8762 0
1103 1 51.3435 70.9909 0
1104 1 47.078 58.0873 0
1105 1 48.2489 40.0508 0
1106 1 16.4758 71.3842 0
1107 2 45.2291 62.3185 0
1108 1 55.6032 31.2469 0
1109 1 72.6991 24.9098 0
1110 2 14.9112 11.8114 0
1111 1 2.66366 56.8683 0
1112 1 76.1429 18.827 0
1113 2 75.4479 7.73132 0
1114 2 14.2181 53.4802 0
1115 2 32.9462 49.4454 0
1116 1 77.2233 64.707 0
1117 1 66.9399 56.4192 0
1118 1 12.3546 75.4727 0
1119 2 11.234 64.3369 0
1120 1 41.3269 58.0112 0
1121 2 21.212 64.2629 0
1122 1 32.0445 32.4506 0
1123 2 23.0493 51.895 0
1124 1 52.6734 61.915 0
1125 2 14.7245 4.39905 0
1126 2 15.4982 20.1935 0
1127 1 74.618 24.0943 0
1128 1 67.2666 52.0275 0
1129 1 60.8615 39.5995 0
1130 1 30.5746 47.2914 0
1131 1 62.52 15.3894 0
1132 2 75.9377 63.6604 0
1133 2 55.9805 22.5047 0
1134 2 20.8215 72.1525 0
1135 1 0.870141 68.4768 0
1136 2 51.2151 26.8801 0
1137 1 50.9903 61.4866 0
1138 1 30.34 13.6701 0
1139 2 57.5559 52.9516 0
1140 2 9.10131 22.9266 0
1141 1 74.962 65.7083 0
1142 1 27.0585 52.3495 0
1143 1 48.1306 44.757 0
1144 2 60.9196 16.4322 0
1145 1 38.0116 62.6333 0
1146 1 15.5594 18.8884 0
1147 1 28.3115 25.6466 0
1148 1 10.8643 36.7459 0
1149 1 57.5369 29.3362 0
1150 2 65.4545 61.0938 0
1151 1 22.0279 3.87341 0
1152 1 59.8067 52.0333 0
1153 1 71.686 29.5862 0
1154 1 13.8803 4.71937 0
1155 2 60.1461 20.31 0
1156 1 44.5226 32.2176 0
1157 1 12.337 18.1767 0
1158 2 58.3718 47.9738 0
1159 2 5.53064 70.5392 0
1160 1 32.9688 7.74477 0
1161 2 43.9374 56.6191 0
1162 1 15.927 9.93812 0
1163 2 13.4043 72.9844 0
1164 1 23.9814 58.8208 0
1165 1 20.9056 45.4965 0
1166 2 15.0061 50.6805 0
1167 1 28.0193 20.3153 0
1168 1 56.3765 64.6278 0
1169 1 19.5532 66.782 0
1170 2 6.35054 33.6796 0
1171 1 48.5312 33.8414 0
1172 1 22.886 6.81437 0
1173 1 51.7232 64.028 0
1174 1 38.9016 29.2921 0
1175 2 62.5772 44.6652 0
1176 1 68.3263 36.5115 0
1177 1 48.5121 69.9254 0
1178 2 61.1037 47.7182 0
1179 1 72.3619 32.646 0
1180 1 52.0462 17.8489 0
1181 1 54.2879 22.9222 0
1182 1 60.9946 74.2788 0
1183 2 43.1655 73.4072 0
1184 2 28.1095 21.9842 0
1185 1 17.522 63.2298 0
1186 1 48.9542 49.4877 0
1187 1 73.9123 72.2121 0
1188 2 4.83998 37.7202 0
1189 1 60.7482 65.2674 0
1190 1 28.4168 51.4903 0
1191 2 72.2013 4.82835 0
1192 1 24.6161 47.0175 0
1193 1 47.5733 17.9397 0
1194 2 16.6231 16.0622 0
1195 1 74.2271 48.8699 0
1196 1 21.8821 49.7873 0
1197 1 35.5807 38.8924 0
1198 1 62.4896 76.4296 0
1199 2 57.8394 62.4606 0
1200 1 26.9643 8.82619 0
1201 1 2.86757 73.2459 0
1202 1 5.84487 48.9071 0
1203 2 47.5984 12.3806 0
1204 1 57.5018 56.6253 0
1205 1 66.6882 50.279 0
1206 1 52.2458 5.06078 0
1207 1 31.8313 62.8043 0
1208 1 75.4205 58.0961 0
1209 2 65.359 59.6938 0
1210 1 69.7064 32.0328 0
1211 2 24.8274 35.459 0
1212 1 33.7127 36.1655 0
1213 1 61.2492 68.9308 0
1214 1 61.6274 23.6861 0
1215 1 11.6587 72.7655 0
1216 1 11.1963 49.4838 0
1217 2 67.5394 2.05521 0
1218 2 61.5091 20.9334 0
1219 1 30.2406 15.3966 0
1220 1 61.9363 18.0348 0
1221 1 61.6619 54.9231 0
1222 2 66.336 74.3767 0
1223 1 42.3574 48.0777 0
1224 1 0.718647 34.1543 0
1225 1 2.84832 25.7236 0
1226 2 65.8691 64.9086 0
1227 1 41.4558 56.9483 0
1228 1 76.2039 70.7442 0
1229 2 47.9885 9.26841 0
1230 1 25.5795 49.7427 0
1231 2 52.9375 18.0766 0
1232 1 67.7705 38.1533 0
1233 1 38.5675 58.5686 0
1234 1 1.75599 67.8823 0
1235 1 18.1671 46.0162 0
1236 1 52.3685 63.0954 0
1237 1 37.9258 20.7008 0
1238 1 24.6866 7.21436 0
1239 1 12.8968 22.7287 0
1240 1 24.4563 62.9766 0
1241 1 76.2654 62.8376 0