ITEM: TIMESTEP
0
ITEM: NUMBER OF ATOMS
7200
ITEM: BOX BOUNDS xy xz yz pp pp pp
0.0000000000000000e+00 7.7459666924100006e+01 0.0000000000000000e+00
0.0000000000000000e+00 7.7459666924100006e+01 0.0000000000000000e+00
-1.2909944490000000e-01 1.2909944490000000e-01 0.0000000000000000e+00
ITEM: ATOMS id type x y z
1 1 12.1666 20.1255 0
2 1 14.8655 64.0498 0
3 1 75.2138 71.0772 0
4 1 20.3959 8.065 0
5 1 34.5721 55.9463 0
6 1 56.6455 28.5234 0
7 2 5.3341 3.31361 0
8 2 64.7321 46.2967 0
9 1 42.129 56.1077 0
10 2 19.0309 14.7061 0
11 2 25.4332 53.2975 0
12 1 55.2075 11.5293 0
13 2 23.0829 6.02636 0
14 1 46.5467 70.6442 0
15 1 39.3641 31.3312 0
16 1 18.1451 14.9385 0
17 1 31.3557 39.9724 0
18 1 33.7861 5.81838 0
19 1 27.0037 57.803 0
20 2 44.8953 3.68309 0
21 1 12.3091 65.9956 0
22 1 54.424 10.8125 0
23 1 75.6069 45.7706 0
24 1 55.9331 66.3954 0
25 1 6.67317 71.0596 0
26 1 21.0455 67.6443 0
27 2 28.9518 63.8689 0
28 1 51.3231 74.2611 0
29 2 22.4985 48.0319 0
30 2 25.3251 32.1268 0
31 1 15.1102 53.3416 0
32 1 51.0229 37.9365 0
33 1 60.8014 48.4597 0
34 2 45.3156 9.61352 0
35 1 75.2803 63.138 0
36 1 30.5731 60.0607 0
37 1 22.3171 61.5597 0
38 1 45.9027 19.7593 0
39 1 22.3264 5.62787 0
40 2 24.8467 59.2384 0
41 2 18.4369 64.6896 0
42 1 20.936 1.22936 0
43 1 18.9694 33.5299 0
44 1 34.3813 62.7204 0
45 1 3.36667 34.55 0
46 1 68.1146 7.59914 0
47 1 73.5183 59.0386 0
48 1 44.1034 68.3279 0
49 2 77.215 4.15803 0
50 1 31.0533 66.7179 0
51 1 1.29886 10.0258 0
52 2 33.1761 24.2852 0
53 1 53.5622 18.6265 0
54 1 49.5995 30.2612 0
55 1 9.69682 1.09874 0
56 1 45.9739 26.04 0
57 1 67.4683 42.9942 0
58 1 69.7684 69.0986 0
59 1 34.2132 2.16838 0
60 1 28.6898 3.43878 0
61 1 40.5248 75.9989 0
62 1 52.1874 45.1075 0
63 1 57.2993 9.88106 0
64 1 50.6208 45.7661 0
65 1 67.0056 73.5951 0
66 2 56.0741 11.411 0
67 2 40.726 35.9591 0
68 2 0.887786 29.1889 0
69 1 61.9297 45.3305 0
70 1 8.49642 35.6565 0
71 2 7.51106 42.2368 0
72 1 76.7951 3.42748 0
73 1 6.24207 64.1284 0
74 2 41.6349 22.7478 0
75 1 75.412 53.3281 0
76 1 19.6903 46.9078 0
77 1 25.0436 74.5499 0
78 1 3.6877 15.5779 0
79 1 12.6003 73.4633 0
80 1 43.4645 16.6222 0
81 1 55.0327 62.2733 0
82 2 44.3435 16.6394 0
83 1 5.74169 33.0435 0
84 1 33.04 45.735 0
85 1 34.482 20.8533 0
86 2 34.6358 64.7367 0
87 1 71.4953 34.6548 0
88 1 18.4762 54.6648 0
89 1 27.7194 13.0844 0
90 1 37.4493 37.9332 0
91 2 46.001 41.1348 0
92 2 41.271 56.0997 0
93 1 27.7324 16.9042 0
94 1 33.4809 55.6952 0
95 2 39.1375 56.7404 0
96 1 65.3621 1.26062 0
97 1 44.1261 49.072 0
98 2 2.833 60.1125 0
99 1 61.8205 48.1286 0
100 2 32.3897 30.8397 0
101 1 47.7008 54.3452 0
102 1 55.9961 21.5408 0
103 1 56.6298 70.4217 0
104 1 2.7171 60.9426 0
105 2 40.1662 3.11713 0
106 2 30.4394 34.8061 0
107 1 13.2051 31.3461 0
108 1 0.787717 0.821747 0
109 1 35.6987 41.6229 0
110 2 65.1427 25.5398 0
111 1 66.0676 12.0249 0
112 1 34.2215 72.8577 0
113 2 0.258998 60.3944 0
114 2 74.5529 29.4682 0
115 2 30.3301 12.8243 0
116 2 74.5791 53.6595 0
117 1 16.1692 45.9421 0
118 2 46.758 26.441 0
119 1 62.6893 77.4569 0
120 2 5.93653 49.743 0
121 1 6.17842 3.60996 0
122 1 20.0034 33.0861 0
123 2 5.37308 17.7458 0
124 1 46.4188 57.2753 0
125 1 31.6668 27.2545 0
126 1 57.9602 52.1281 0
127 1 4.46513 58.9976 0
128 1 14.4447 23.4443 0
129 1 16.4826 52.1816 0
130 1 7.19989 2.10651 0
131 1 59.1088 24.9041 0
132 2 31.209 41.8335 0
133 2 52.7399 6.87792 0
134 1 65.6575 50.9403 0
135 1 31.5649 30.4296 0
136 2 55.1705 46.4738 0
137 1 61.676 56.5856 0
138 2 70.4097 47.9126 0
139 1 68.4144 27.261 0
140 1 3.538 21.8976 0
141 2 48.0917 63.6002 0
142 1 6.56067 22.6034 0
143 2 40.6248 70.1463 0
144 2 47.2875 75.3192 0
145 2 18.4454 52.9279 0
146 1 54.9884 4.03863 0
147 1 9.36524 39.1146 0
148 1 46.3432 53.3875 0
149 2 67.8907 49.1531 0
150 1 32.7956 56.5397 0
151 2 29.4634 13.9311 0
152 1 48.9787 63.247 0
153 2 17.3372 46.4003 0
154 2 31.5764 72.2789 0
155 1 70.4279 48.9484 0
156 1 43.5487 10.3216 0
157 1 49.2459 71.1227 0
158 1 60.2558 69.1716 0
159 2 10.5297 26.1119 0
160 1 38.1277 17.4667 0
161 1 7.19115 63.5166 0
162 2 72.6484 24.0198 0
163 1 30.6166 27.1202 0
164 1 60.1499 29.4235 0
165 1 75.7476 27.75 0
166 1 1.98326 44.7342 0
167 1 39.24 0.905858 0
168 1 38.477 72.8391 0
169 1 56.6963 30.9174 0
170 1 57.4068 0.956934 0
171 2 36.8433 61.1017 0
172 2 33.6851 53.7464 0
173 2 43.7712 24.2921 0
174 2 27.4694 55.9409 0
175 2 30.9403 26.3421 0
176 1 46.2302 16.2515 0
177 1 19.6273 58.6077 0
178 1 61.8308 61.3009 0
179 1 64.6366 24.824 0
180 2 33.2372 39.6875 0
181 1 45.1608 27.5247 0
182 1 61.735 58.4983 0
183 2 12.2049 37.434 0
184 1 5.16325 67.5463 0
185 2 67.2591 29.4596 0
186 1 58.9626 35.0737 0
187 1 39.5696 46.3967 0
188 1 57.3038 47.7166 0
189 2 63.7268 53.0875 0
190 1 23.1604 4.10522 0
191 1 71.6656 8.11401 0
192 1 65.5032 10.2788 0
193 2 10.8438 41.6507 0
194 2 68.6829 69.0762 0
195 1 11.1667 3.35927 0
196 2 49.558 54.9617 0
197 2 20.1478 10.0041 0
198 1 13.4693 61.3007 0
199 2 75.704 66.1465 0
200 1 59.8695 27.6604 0
201 2 34.7127 1.43142 0
202 2 74.5599 55.1641 0
203 1 52.4013 65.699 0
204 1 29.643 3.87608 0
205 1 56.1266 26.0447 0
206 2 35.7737 36.9452 0
207 2 13.918 9.47976 0
208 1 33.6973 14.1432 0
209 1 12.2007 11.5814 0
210 2 5.3837 20.5692 0
211 1 17.1673 8.11916 0
212 2 24.7735 6.24676 0
213 2 56.005 27.9893 0
214 1 71.0499 57.7082 0
215 2 66.9635 22.3753 0
216 1 20.704 73.6221 0
217 1 59.505 34.1401 0
218 2 54.6364 58.5288 0
219 2 68.0625 42.3012 0
220 2 42.6398 63.9294 0
221 1 18.9689 45.3897 0
222 1 44.9659 12.3905 0
223 2 39.2177 67.7918 0
224 2 27.7241 68.7133 0
225 1 32.4548 23.7767 0
226 2 66.38 57.1053 0
227 2 6.02181 16.4469 0
228 1 34.4916 9.28 0
229 1 71.0252 26.8092 0
230 1 32.2339 74.5666 0
231 1 10.7653 34.3333 0
232 1 42.0149 12.9015 0
233 1 34.8726 7.58894 0
234 1 76.0494 8.32958 0
235 1 60.7853 58.9931 0
236 2 44.6179 70.4319 0
237 1 77.295 62.2906 0
238 2 9.30649 21.5059 0
239 1 58.5432 2.74547 0
240 2 61.6369 46.1789 0
241 1 47.3386 66.7302 0
242 1 18.5522 30.6227 0
243 1 7.18939 56.2746 0
244 1 61.2263 64.2246 0
245 1 11.0724 30.7947 0
246 1 2.01732 35.537 0
247 1 65.5193 49.9097 0
248 1 12.3107 0.840508 0
249 2 50.3661 41.1994 0
250 1 29.0275 9.45827 0
251 2 57.605 50.147 0
252 2 65.8203 23.3065 0
253 1 19.8525 17.5643 0
254 1 54.4664 24.9758 0
255 1 65.4933 42.8967 0
256 1 31.3878 8.66814 0
257 1 22.1605 58.016 0
258 1 26.1231 38.7793 0
259 1 55.5523 56.754 0
260 2 43.9687 53.8966 0
261 2 26.411 62.7107 0
262 1 24.3757 33.755 0
263 2 12.5742 34.7309 0
264 2 71.4097 59.8927 0
265 1 77.0309 46.7055 0
266 1 38.211 44.6818 0
267 2 61.6345 24.5705 0
268 2 56.5647 45.8543 0
269 1 48.1625 20.9611 0
270 2 9.10453 47.0505 0
271 2 22.522 33.5849 0
272 2 20.3757 14.2769 0
273 1 14.9255 65.1094 0
274 1 32.2713 50.0178 0
275 1 8.57462 49.0052 0
276 1 75.3547 10.1975 0
277 2 15.6271 71.4068 0
278 1 7.56684 17.4505 0
279 1 4.50782 44.3336 0
280 1 20.3244 35.83 0
281 1 30.6481 38.5536 0
282 2 75.9692 26.452 0
283 1 76.4811 55.6842 0
284 2 54.2699 38.3383 0
285 1 70.9489 52.708 0
286 1 11.3531 63.392 0
287 1 19.0808 76.7865 0
288 2 75.6653 3.84713 0
289 2 21.3742 39.1738 0
290 2 69.1703 76.4294 0
291 1 35.1666 22.6201 0
292 1 27.7431 58.5605 0
293 1 47.4497 18.9596 0
294 1 40.3898 2.19496 0
295 1 69.9295 3.21574 0
296 2 74.1308 8.48446 0
297 1 40.2573 59.7936 0
298 1 72.5013 35.0624 0
299 2 49.2595 36.5098 0
300 1 39.1932 43.7612 0
301 1 73.5219 19.7049 0
302 1 50.9165 35.1656 0
303 1 20.4944 32.1349 0
304 1 60.5586 72.3231 0
305 2 59.1485 75.8667 0
306 1 63.0207 52.5289 0
307 2 73.3698 38.7494 0
308 1 41.6216 5.3036 0
309 2 24.9363 16.9559 0
310 2 13.3178 12.9933 0
311 1 29.3573 49.5438 0
312 1 67.3964 61.5924 0
313 1 74.7558 76.0449 0
314 1 40.5707 45.9837 0
315 2 56.3584 31.8218 0
316 2 39.5452 63.4345 0
317 1 50.8894 20.5625 0
318 2 7.07037 31.3464 0
319 1 30.9658 25.4082 0
320 1 36.111 61.6596 0
321 1 58.6852 68.4074 0
322 2 73.9955 11.8511 0
323 2 25.0667 63.5953 0
324 1 64.2834 41.5638 0
325 1 41.3625 6.3434 0
326 1 9.74222 58.8754 0
327 1 48.6799 54.7452 0
328 1 0.755917 37.0032 0
329 1 41.7683 42.6262 0
330 2 51.7683 34.8511 0
331 2 70.0751 4.10441 0
332 1 59.4172 28.626 0
333 1 36.9519 12.2693 0
334 1 17.0679 34.764 0
335 1 20.5707 38.7635 0
336 2 72.2645 74.3636 0
337 1 34.7267 33.7307 0
338 2 17.1066 1.56615 0
339 1 42.4028 68.3742 0
340 1 18.8503 57.8442 0
341 2 74.1051 44.2022 0
342 1 67.0609 5.81465 0
343 2 56.3791 49.8309 0
344 2 22.7738 66.0768 0
345 1 8.0222 27.8289 0
346 1 17.4988 71.8152 0
347 1 35.4367 56.5803 0
348 1 56.6189 18.9101 0
349 1 33.6543 20.1718 0
350 1 37.1505 31.116 0
351 1 17.9796 53.7172 0
352 1 47.7911 30.7059 0
353 1 75.3665 25.8265 0
354 2 22.6506 26.2438 0
355 2 43.4553 18.2281 0
356 2 11.8661 2.83208 0
357 1 68.4711 67.4414 0
358 1 24.1767 3.75166 0
359 1 22.2449 14.6023 0
360 2 45.1862 31.2037 0
361 2 48.0598 67.294 0
362 1 27.0948 74.6067 0
363 2 38.0481 73.5826 0
364 1 13.1515 66.5616 0
365 2 8.85289 57.1473 0
366 1 24.9475 50.6429 0
367 2 19.8434 23.4493 0
368 2 51.3692 54.9842 0
369 2 65.2121 70.526 0
370 1 3.50167 28.3253 0
371 1 46.0484 73.5237 0
372 2 40.4377 9.91964 0
373 1 10.5147 31.785 0
374 2 66.6469 41.3394 0
375 1 52.2375 52.7964 0
376 2 75.4944 43.2076 0
377 2 58.1757 38.1543 0
378 1 20.4953 63.8345 0
379 1 13.8785 20.2872 0
380 1 9.82663 62.4957 0
381 1 26.6966 23.3501 0
382 1 30.684 23.6272 0
383 1 9.59635 11.7784 0
384 1 34.9654 51.6528 0
385 1 28.4762 77.132 0
386 1 54.8965 40.408 0
387 1 59.5831 76.609 0
388 2 55.9174 57.7552 0
389 1 24.6177 56.7592 0
390 1 29.4736 13.0399 0
391 2 59.8617 26.734 0
392 2 30.0618 10.245 0
393 2 38.6925 64.9151 0
394 1 10.1982 73.8082 0
395 1 53.1815 21.9011 0
396 1 13.7254 70.4479 0
397 1 46.8353 17.104 0
398 1 45.4376 70.8371 0
399 1 70.0283 18.0877 0
400 1 59.9731 74.1106 0
401 1 44.5515 11.3887 0
402 2 56.6452 16.971 0
403 1 38.309 51.6112 0
404 1 69.277 70.8573 0
405 2 73.8486 76.2238 0
406 1 34.2228 19.1914 0
407 2 45.7154 21.7638 0
408 1 63.6193 30.4315 0
409 1 18.7161 61.3248 0
410 2 67.4905 16.7024 0
411 2 66.58 36.5838 0
412 1 58.8688 38.6699 0
413 1 7.09939 36.6083 0
414 1 71.2111 48.2213 0
415 1 7.04853 41.5194 0
416 2 73.7692 62.2947 0
417 2 75.1437 12.6874 0
418 1 54.2916 30.0178 0
419 2 56.6122 47.1846 0
420 2 24.8891 55.9419 0
421 1 60.3815 19.3645 0
422 1 2.00914 71.3683 0
423 1 4.18062 12.0446 0
424 1 60.7571 26.926 0
425 1 58.862 50.4392 0
426 1 56.105 73.7514 0
427 2 39.557 14.8515 0
428 1 51.4279 50.1992 0
429 1 59.1293 71.0416 0
430 1 36.667 37.1063 0
431 1 0.105554 29.567 0
432 1 63.4533 48.9286 0
433 1 29.2061 69.5428 0
434 1 1.77401 42.8133 0
435 1 64.0323 34.1892 0
436 2 67.919 39.0236 0
437 2 43.6475 59.4151 0
438 1 38.8915 61.7423 0
439 2 41.1929 12.5836 0
440 1 43.4353 43.6504 0
441 2 66.6961 15.2379 0
442 1 9.72461 38.054 0
443 1 54.6575 16.8604 0
444 1 16.6863 75.3181 0
445 2 69.394 67.4525 0
446 1 61.5999 42.1521 0
447 1 27.0058 70.8837 0
448 1 46.9868 37.6239 0
449 1 37.205 73.3156 0
450 2 48.1076 59.8029 0
451 2 6.65026 61.6925 0
452 1 66.6574 11.1732 0
453 1 28.6867 76.1052 0
454 2 62.5804 29.9579 0
455 2 26.4824 68.0167 0
456 1 11.4103 44.606 0
457 2 18.5067 1.80855 0
458 1 37.9989 77.1172 0
459 2 15.59 56.7231 0
460 1 5.37688 4.28246 0
461 2 27.195 27.1029 0
462 1 45.8489 24.1808 0
463 1 75.8363 69.6044 0
464 1 9.09967 47.9184 0
465 2 40.7268 45.0665 0
466 1 21.6794 12.9726 0
467 2 11.6323 1.40347 0
468 1 19.3509 36.35 0
469 1 1.85294 2.1706 0
470 1 61.8017 10.5377 0
471 2 73.942 40.8841 0
472 1 25.5599 43.1317 0
473 1 61.5829 65.8158 0
474 1 33.4618 54.6299 0
475 1 22.4922 59.86 0
476 2 38.8798 32.0763 0
477 1 60.6723 11.6899 0
478 2 33.1164 74.5226 0
479 1 33.3263 22.3426 0
480 1 19.9529 25.7255 0
481 1 7.16259 18.6592 0
482 1 10.8951 25.2807 0
483 2 1.04668 1.62213 0
484 1 14.4004 38.2912 0
485 1 21.3711 57.2807 0
486 1 7.05224 4.69773 0
487 2 70.968 10.3703 0
488 1 58.8318 5.52926 0
489 1 52.3899 15.2119 0
490 1 35.4161 31.1727 0
491 1 30.6269 42.5465 0
492 2 61.2462 9.88466 0
493 1 73.3331 9.00344 0
494 1 67.561 31.9643 0
495 2 22.5357 49.2628 0
496 2 52.7408 42.1306 0
497 2 40.6911 6.86861 0
498 1 23.6182 25.9133 0
499 1 35.8128 74.3654 0
500 1 2.57692 4.15488 0
501 2 45.4577 43.4236 0
502 1 16.773 24.8075 0
503 1 50.3467 9.78451 0
504 1 37.0458 32.7223 0
505 2 26.5531 77.0088 0
506 2 17.5998 65.2041 0
507 1 42.0741 37.3341 0
508 1 12.9719 32.8312 0
509 1 28.9809 24.833 0
510 1 7.0132 38.7978 0
511 1 69.2985 26.6969 0
512 1 54.4717 53.3513 0
513 1 11.8257 34.2599 0
514 1 25.3281 64.4159 0
515 2 61.44 11.3193 0
516 2 11.4722 38.6707 0
517 2 74.4924 74.535 0
518 2 19.273 54.3486 0
519 2 33.309 1.89803 0
520 1 74.5147 37.0853 0
521 1 42.0666 24.344 0
522 2 24.3089 66.202 0
523 1 77.2429 12.2623 0
524 1 70.4574 34.7034 0
525 1 22.7319 0.0432444 0
526 2 76.5092 22.3626 0
527 1 49.4871 26.1126 0
528 2 74.4108 5.15187 0
529 2 35.25 45.2115 0
530 1 7.95158 59.5596 0
531 2 76.3541 68.8802 0
532 2 32.2132 60.8835 0
533 1 72.7909 5.46544 0
534 1 34.4458 27.1375 0
535 1 29.0651 19.206 0
536 1 32.6427 65.883 0
537 1 35.0884 47.8602 0
538 2 16.4323 21.6664 0
539 2 46.04 76.8993 0
540 1 60.7968 40.6415 0
541 2 24.9776 8.02545 0
542 1 51.1791 56.8465 0
543 2 69.5777 55.5496 0
544 2 52.0695 10.5157 0
545 1 28.2738 22.8056 0
546 1 34.3624 3.26918 0
547 1 10.1081 14.4473 0
548 2 23.6061 3.14299 0
549 2 65.4133 21.8831 0
550 2 5.18996 39.3801 0
551 1 30.3401 8.38762 0
552 2 70.6225 40.289 0
553 2 29.5552 44.9464 0
554 1 51.6778 62.2594 0
555 1 50.2172 57.3095 0
556 1 72.9488 67.9696 0
557 1 61.9954 53.9263 0
558 1 2.51174 68.4776 0
559 1 72.7233 36.0938 0
560 2 21.4528 61.5582 0
561 1 5.61025 0.633134 0
562 2 4.5285 11.1796 0
563 2 54.0619 48.7652 0
564 1 70.1372 68.022 0
565 2 21.7968 1.43774 0
566 2 18.2061 23.8117 0
567 1 48.9343 42.1389 0
568 2 22.8436 74.1371 0
569 2 15.7155 27.5101 0
570 1 73.1529 34.2024 0
571 1 0.383488 3.55048 0
572 2 6.67989 48.4955 0
573 2 0.0296413 44.9477 0
574 1 3.72276 69.0888 0
575 1 18.29 7.69597 0
576 1 16.4492 63.1175 0
577 1 43.3404 50.505 0
578 2 67.6296 34.3012 0
579 2 45.8291 69.0994 0
580 1 62.6941 42.575 0
581 1 6.73449 60.7844 0
582 2 68.6646 59.5591 0
583 2 64.0886 58.5992 0
584 2 33.4946 65.5969 0
585 1 60.9941 77.3978 0
586 1 48.6585 58.7332 0
587 2 14.6431 21.7831 0
588 1 49.5685 5.20926 0
589 2 53.7337 10.2779 0
590 1 24.6568 73.551 0
591 1 56.3005 6.44441 0
592 1 48.5854 74.3501 0
593 1 44.0665 13.092 0
594 1 59.8433 63.2966 0
595 1 72.176 65.312 0
596 2 7.09584 1.25052 0
597 1 3.51981 43.9794 0
598 1 69.0148 9.19844 0
599 1 2.6239 50.9365 0
600 1 0.120231 47.6157 0
601 2 42.1256 36.0978 0
602 1 62.2489 14.3399 0
603 2 70.9989 50.8684 0
604 2 62.2944 16.4837 0
605 1 52.3916 69.2201 0
606 1 41.5646 4.06303 0
607 1 76.3669 1.34799 0
608 2 1.30747 40.2878 0
609 2 40.7961 0.464646 0
610 1 7.7923 49.7419 0
611 1 53.7784 58.8391 0
612 1 76.6362 6.27041 0
613 1 76.9884 23.1353 0
614 2 50.5375 28.4175 0
615 1 34.5675 38.8115 0
616 1 39.7095 16.1222 0
617 1 69.0656 2.57757 0
618 2 12.0624 42.7262 0
619 2 55.145 42.3854 0
620 2 70.8645 73.8943 0
621 2 58.4195 35.7491 0
622 1 60.2736 18.1959 0
623 1 37.4211 11.2902 0
624 2 20.4844 54.8424 0
625 1 27.0608 76.2769 0
626 1 73.8095 29.0263 0
627 2 2.36987 25.0512 0
628 1 28.6642 58.1125 0
629 2 77.4251 25.5138 0
630 1 29.2116 73.0333 0
631 1 56.8526 37.1201 0
632 1 21.65 65.1082 0
633 2 25.5619 72.076 0
634 1 18.7961 50.708 0
635 2 41.5359 43.6591 0
636 2 37.1567 40.7959 0
637 1 11.2184 11.0524 0
638 1 67.3868 40.8519 0
639 1 70.385 46.2811 0
640 1 0.246961 53.9352 0
641 1 36.4449 33.5769 0
642 1 9.74282 33.8737 0
643 1 50.2732 44.7796 0
644 2 19.3538 27.2978 0
645 1 56.9597 52.2422 0
646 1 46.2591 47.0476 0
647 2 23.5787 10.5277 0
648 1 64.3869 12.4314 0
649 2 10.6017 69.0556 0
650 2 47.0811 61.9429 0
651 1 46.0356 12.1373 0
652 1 29.6481 70.9648 0
653 2 13.6132 23.207 0
654 2 10.3075 3.71896 0
655 1 5.51899 51.8426 0
656 1 72.7891 53.8248 0
657 1 33.7865 46.5358 0
658 1 71.6168 13.2428 0
659 2 0.880261 66.1329 0
660 1 26.7484 35.6654 0
661 1 37.2673 9.83544 0
662 1 32.7436 60.0698 0
663 1 10.722 28.733 0
664 1 58.4565 75.3496 0
665 2 49.2122 76.9515 0
666 2 12.796 58.2245 0
667 1 26.404 73.7958 0
668 2 7.72253 76.2156 0
669 1 4.35924 9.17575 0
670 2 43.9399 37.6525 0
671 2 37.264 17.5161 0
672 1 9.87575 19.6882 0
673 1 6.89676 16.6088 0
674 1 32.6834 42.593 0
675 2 4.83434 58.1663 0
676 2 37.9616 6.33214 0
677 1 41.3725 54.1272 0
678 1 53.7278 39.0437 0
679 1 46.6321 69.6004 0
680 1 31.7457 53.5776 0
681 1 26.3675 54.1329 0
682 1 62.3981 59.5286 0
683 1 18.0609 59.2973 0
684 1 64.4054 68.8745 0
685 2 35.895 18.7117 0
686 1 50.3996 6.25645 0
687 1 41.5473 18.9361 0
688 2 53.5813 73.6627 0
689 1 72.0098 62.3907 0
690 1 66.0442 72.1464 0
691 1 41.8475 39.9602 0
692 2 59.8483 44.0436 0
693 1 71.3266 76.8467 0
694 2 53.6921 64.3061 0
695 1 42.2966 11.8307 0
696 2 35.6891 47.1671 0
697 1 25.6188 13.3534 0
698 1 8.31991 3.45234 0
699 1 66.7239 13.9045 0
700 1 72.064 47.0152 0
701 1 64.1714 31.3571 0
702 1 63.6725 65.2251 0
703 2 71.9963 2.17461 0
704 2 8.37432 61.3359 0
705 2 4.91184 7.28502 0
706 1 52.2491 51.7512 0
707 2 59.6659 38.4048 0
708 1 50.3953 43.0911 0
709 1 51.6612 73.2254 0
710 2 60.2737 28.5505 0
711 1 55.9718 54.1288 0
712 2 62.7624 32.7126 0
713 2 68.3908 70.4516 0
714 2 0.616068 64.8854 0
715 1 45.2964 18.8362 0
716 1 76.472 29.8544 0
717 1 29.7945 63.5136 0
718 1 14.3084 3.67935 0
719 1 53.2946 36.9088 0
720 2 49.1562 38.4256 0
721 2 66.7817 39.8335 0
722 1 49.0771 8.03171 0
723 2 39.9762 75.3025 0
724 2 10.4312 59.4886 0
725 1 50.713 39.1052 0
726 1 8.28457 29.9708 0
727 2 12.9113 1.45476 0
728 1 67.4445 55.5193 0
729 2 21.6121 59.8567 0
730 1 32.7797 27.5288 0
731 2 16.6164 36.3979 0
732 1 16.4036 54.2777 0
733 1 29.8465 29.4597 0
734 2 66.3084 46.459 0
735 1 66.7246 67.2208 0
736 1 47.7811 49.4341 0
737 2 4.16022 45.6703 0
738 1 13.6915 34.4695 0
739 1 17.9924 37.5873 0
740 1 48.466 37.88 0
741 2 57.1623 55.6233 0
742 1 58.9236 37.5976 0
743 1 27.1545 62.2461 0
744 2 72.795 19.0514 0
745 1 23.0934 72.6978 0
746 1 35.0289 10.2323 0
747 1 47.5374 76.1462 0
748 2 43.1261 69.8929 0
749 2 22.3753 24.5086 0
750 1 55.3248 34.9952 0
751 1 57.6891 40.1726 0
752 2 2.39302 70.5232 0
753 1 53.0242 39.8164 0
754 2 21.6931 15.298 0
755 1 24.0594 50.0299 0
756 2 49.4481 75.9944 0
757 1 48.4251 19.3429 0
758 1 6.06733 9.80241 0
759 1 61.6997 47.0232 0
760 1 12.1686 10.5022 0
761 1 69.9087 71.6566 0
762 1 15.2622 57.5607 0
763 2 77.0712 7.06603 0
764 1 75.0015 57.0106 0
765 2 47.0696 56.6546 0
766 1 63.2878 22.6821 0
767 1 13.715 1.15014 0
768 1 65.3952 8.02855 0
769 1 61.7528 49.9814 0
770 2 60.5674 73.4872 0
771 1 18.8851 39.9788 0
772 1 44.9264 51.093 0
773 1 40.7968 43.1413 0
774 2 32.6511 25.7506 0
775 1 71.7181 30.585 0
776 2 43.7139 42.8145 0
777 1 70.3671 55.1728 0
778 2 10.4338 63.1683 0
779 1 45.2561 25.1403 0
780 1 17.0747 6.19002 0
781 1 29.6482 35.209 0
782 1 57.428 64.85 0
783 1 60.6648 35.56 0
784 1 70.73 50.001 0
785 2 8.80572 11.4265 0
786 1 73.2254 70.0719 0
787 1 20.8871 66.6019 0
788 1 39.8282 54.7989 0
789 1 10.9418 4.38627 0
790 1 52.1484 70.2741 0
791 1 45.815 13.2051 0
792 1 8.6504 25.1122 0
793 1 25.1961 14.9718 0
794 2 71.3508 16.7471 0
795 2 75.6103 14.1561 0
796 2 75.5661 67.7427 0
797 1 44.5021 65.385 0
798 1 38.4111 18.9892 0
799 1 44.2882 76.4528 0
800 1 30.6584 70.5761 0
801 2 6.50162 25.9997 0
802 2 28.0779 45.5759 0
803 2 23.5495 77.0905 0
804 2 52.6171 35.9716 0
805 1 23.8066 71.9489 0
806 1 53.0889 70.8777 0
807 2 39.8602 50.4457 0
808 1 50.4293 47.2531 0
809 2 36.3162 62.4903 0
810 1 58.5207 76.4819 0
811 1 28.6385 61.0948 0
812 2 59.6036 48.2413 0
813 2 46.2036 58.1272 0
814 1 54.2983 31.1281 0
815 2 41.0992 16.9582 0
816 1 28.0706 34.4762 0
817 1 67.7158 75.6368 0
818 2 36.802 16.0801 0
819 2 45.7144 56.7303 0
820 1 66.9057 69.7796 0
821 1 16.7155 64.8467 0
822 1 56.7965 76.7324 0
823 1 17.1926 55.6831 0
824 2 35.3749 42.4118 0
825 1 29.1347 41.5698 0
826 1 32.8954 75.4098 0
827 1 7.32673 26.2196 0
828 1 76.8358 51.2015 0
829 1 72.145 40.1868 0
830 2 47.8332 64.523 0
831 2 43.3741 4.61281 0
832 1 73.9183 14.3684 0
833 1 24.5721 43.482 0
834 2 48.7518 5.53993 0
835 1 68.376 6.55022 0
836 1 58.1455 27.6856 0
837 1 56.2489 41.2569 0
838 1 39.0148 52.8132 0
839 1 16.1011 60.335 0
840 2 15.7534 46.7089 0
841 1 36.9091 52.5902 0
842 2 11.1308 61.2327 0
843 1 5.50877 42.3464 0
844 1 63.5117 21.5876 0
845 2 27.9145 2.25231 0
846 1 49.6435 39.2054 0
847 1 10.989 57.638 0
848 2 68.9569 47.6407 0
849 1 74.1415 10.995 0
850 1 67.9705 19.6656 0
851 1 39.4365 18.6417 0
852 1 12.2504 2.00784 0
853 1 42.3883 61.6078 0
854 1 37.7347 69.6781 0
855 1 39.525 25.5991 0
856 2 18.7068 42.0103 0
857 1 57.7855 34.0067 0
858 2 34.4292 28.872 0
859 1 13.092 64.8182 0
860 2 2.04976 58.595 0
861 2 60.142 40.0973 0
862 2 2.91208 69.244 0
863 1 59.0515 23.7293 0
864 1 60.3036 53.7334 0
865 2 66.1239 67.9974 0
866 1 60.5208 17.1857 0
867 2 31.5212 21.8871 0
868 1 37.1702 61.9301 0
869 1 62.2189 20.1056 0
870 1 0.0472176 52.7881 0
871 1 62.7638 26.0941 0
872 1 42.3464 50.8037 0
873 1 50.6696 62.5857 0
874 1 3.8981 71.7548 0
875 1 34.0926 57.7806 0
876 2 51.5889 7.92838 0
877 1 13.339 55.5407 0
878 2 14.6838 16.0616 0
879 1 76.5262 14.0497 0
880 2 31.7631 33.5335 0
881 2 51.9073 29.3458 0
882 2 48.0074 73.6624 0
883 1 25.7196 20.0477 0
884 1 56.0272 36.5173 0
885 1 38.9303 5.08738 0
886 1 37.0122 60.1168 0
887 2 54.7058 50.1457 0
888 1 0.496118 76.5408 0
889 2 59.2015 49.5968 0
890 2 7.76623 25.417 0
891 1 38.1609 10.4743 0
892 1 40.1364 67.8078 0
893 1 30.0585 53.6667 0
894 1 77.0344 14.9693 0
895 2 32.449 53.0423 0
896 1 37.6578 2.66338 0
897 2 35.6585 17.0725 0
898 1 31.1181 43.5456 0
899 1 2.07108 75.7473 0
900 2 38.6174 0.246237 0
901 1 52.2781 41.3996 0
902 1 24.3108 75.3146 0
903 1 37.9905 40.5335 0
904 2 0.100987 37.6369 0
905 1 63.7128 62.0492 0
906 1 69.0122 44.6374 0
907 1 3.82013 29.8598 0
908 1 50.7408 23.7931 0
909 1 0.308534 48.7342 0
910 2 1.7797 50.7213 0
911 2 4.54046 4.61503 0
912 2 36.1553 32.755 0
913 2 31.9388 51.6114 0
914 1 18.2446 12.928 0
915 2 64.6832 5.40652 0
916 1 3.37441 39.806 0
917 2 4.9654 33.5009 0
918 2 19.5295 35.4681 0
919 1 8.20388 57.7174 0
920 1 15.8921 47.6531 0
921 1 0.178551 26.6073 0
922 2 50.8306 18.9929 0
923 2 12.3113 24.3459 0
924 1 39.2908 17.5527 0
925 1 66.3053 47.3372 0
926 2 35.4753 35.2633 0
927 1 68.9485 77.3678 0
928 1 52.0683 59.1542 0
929 2 52.0439 32.1067 0
930 2 19.9465 15.8859 0
931 1 40.8152 47.5758 0
932 1 70.4143 39.0765 0
933 1 34.3118 21.945 0
934 1 1.9564 60.2291 0
935 1 11.3784 50.613 0
936 2 42.188 4.64492 0
937 1 14.254 73.2602 0
938 1 36.8074 67.8014 0
939 2 50.4101 51.2786 0
940 1 75.9358 46.8065 0
941 1 77.2409 17.6267 0
942 1 37.9623 29.7262 0
943 2 22.2647 16.7011 0
944 2 2.02615 41.9456 0
945 1 40.4903 25.2625 0
946 1 64.5751 67.1265 0
947 2 25.1077 2.11584 0
948 1 39.3905 68.6332 0
949 1 26.7657 11.6167 0
950 2 5.06254 9.80992 0
951 1 68.9036 65.5751 0
952 2 52.7141 2.73929 0
953 2 7.83281 44.8192 0
954 2 29.9074 62.6031 0
955 1 27.1807 38.5967 0
956 2 58.8926 10.9771 0
957 1 48.4045 23.6506 0
958 2 19.4707 2.78161 0
959 2 73.6698 25.0414 0
960 2 29.1684 66.9634 0
961 1 49.5149 52.1556 0
962 1 24.3233 1.62596 0
963 1 16.2387 12.5643 0
964 2 8.62629 9.58792 0
965 2 53.6909 53.7727 0
966 1 0.769173 62.727 0
967 1 49.8642 35.5003 0
968 1 18.3414 0.0582344 0
969 1 58.0193 23.3636 0
970 2 22.4466 4.71486 0
971 1 21.2035 14.5696 0
972 1 6.88009 25.2112 0
973 1 0.89294 35.9005 0
974 2 1.0455 35.0278 0
975 2 73.0662 65.3312 0
976 2 34.6096 19.981 0
977 1 36.0175 63.3351 0
978 2 3.15517 77.0073 0
979 2 36.0842 65.8316 0
980 1 72.8904 14.2856 0
981 1 73.6307 58.0182 0
982 1 7.86349 54.6716 0
983 1 18.484 24.6556 0
984 1 9.26839 57.9257 0
985 1 34.4445 11.2209 0
986 1 37.9641 52.6246 0
987 2 18.0985 12.0814 0
988 2 42.117 34.8944 0
989 2 9.96673 34.7887 0
990 2 69.7445 51.5771 0
991 2 46.2392 14.7573 0
992 1 62.3172 34.5642 0
993 2 29.1096 5.7975 0
994 2 1.90719 54.9497 0
995 1 38.9452 22.1452 0
996 2 54.6619 56.9848 0
997 2 43.5018 30.8293 0
998 2 60.4646 74.8721 0
999 2 39.3775 26.4727 0
1000 2 0.380991 49.5873 0
1001 1 41.6597 65.5583 0
1002 1 23.4817 34.4145 0
1003 1 9.55539 54.255 0
1004 1 7.63762 22.5075 0
1005 2 10.7776 23.7398 0
1006 2 67.829 60.8253 0
1007 1 18.8513 20.3648 0
1008 1 47.846 16.843 0
1009 1 31.0407 33.0332 0
1010 1 11.5498 43.4849 0
1011 2 10.5199 22.3722 0
1012 2 2.4146 23.3272 0
1013 2 65.0505 55.871 0
1014 1 74.1439 15.5157 0
1015 1 76.0589 9.35715 0
1016 1 37.243 47.9674 0
1017 2 68.7519 54.2355 0
1018 1 26.2493 25.0036 0
1019 1 44.3327 29.007 0
1020 2 32.5152 6.39731 0
1021 2 15.9554 24.5338 0
1022 1 4.88835 60.9017 0
1023 1 41.1436 9.3972 0
1024 1 9.26238 67.7357 0
1025 1 37.0319 65.8704 0
1026 1 8.03288 40.2178 0
1027 1 47.5074 2.4871 0
1028 1 2.01356 32.9512 0
1029 1 49.0214 18.1344 0
1030 2 46.8629 48.0353 0
1031 2 37.5291 36.9984 0
1032 1 16.3595 73.1459 0
1033 1 57.6322 19.253 0
1034 1 35.2831 29.2833 0
1035 1 65.863 28.4524 0
1036 2 73.6384 45.8877 0
1037 1 31.227 73.1061 0
1038 1 68.6409 60.4217 0
1039 1 5.52177 31.9563 0
1040 2 64.9427 34.2923 0
1041 1 35.4476 65.2003 0
1042 2 62.7931 68.0276 0
1043 2 60.6184 58.1587 0
1044 1 67.7132 23.4973 0
1045 1 66.7142 23.2406 0
1046 1 41.155 68.2206 0
1047 2 9.94555 47.6861 0
1048 1 53.5424 77.435 0
1049 1 59.8815 49.0715 0
1050 2 45.5398 6.42972 0
1051 1 43.5154 31.7088 0
1052 1 66.352 44.4433 0
1053 2 32.5816 18.5437 0
1054 1 55.1686 7.06664 0
1055 2 32.9242 46.6498 0
1056 2 14.6493 45.2367 0
1057 1 12.0235 71.6765 0
1058 1 27.4241 5.90793 0
1059 1 9.1942 75.248 0
1060 2 21.8835 42.121 0
1061 1 10.1011 23.2191 0
1062 2 16.909 41.4097 0
1063 1 77.459 67.7604 0
1064 1 23.2587 5.16047 0
1065 2 29.7546 52.833 0
1066 1 37.4255 46.2634 0
1067 1 13.935 10.3774 0
1068 2 35.5896 67.0775 0
1069 1 67.9226 24.504 0
1070 2 8.2557 34.4898 0
1071 2 49.5698 42.8335 0
1072 2 9.37834 48.7102 0
1073 2 16.4253 3.48195 0
1074 2 33.8523 45.3543 0
1075 1 75.8766 49.7451 0
1076 1 41.2725 7.5506 0
1077 1 41.7382 32.585 0
1078 2 71.749 26.3382 0
1079 2 39.0238 10.8246 0
1080 2 30.0916 72.8614 0
1081 2 45.9101 48.9326 0
1082 2 6.36784 27.6439 0
1083 2 21.5737 20.0657 0
1084 1 44.1471 57.5995 0
1085 1 19.1934 52.4441 0
1086 1 70.1711 66.9371 0
1087 1 29.628 72.0392 0
1088 1 44.6838 63.0901 0
1089 2 8.51195 31.7377 0
1090 1 42.8554 34.4676 0
1091 2 27.6624 17.803 0
1092 1 63.0106 53.6376 0
1093 1 69.0951 32.9776 0
1094 2 43.5714 55.2588 0
1095 1 25.3763 71.2095 0
1096 2 48.2203 18.5142 0
1097 1 76.2123 17.769 0
1098 1 62.652 43.6557 0
1099 1 31.0867 5.06137 0
1100 1 68.3825 1.74336 0
1101 1 74.8826 11.8852 0
1102 1 26.076 74.8322 0
1103 1 51.3654 71.0075 0
1104 1 47.0837 58.1345 0
1105 1 48.2694 40.1073 0
1106 1 16.5104 71.412 0
1107 2 45.1671 62.3229 0
1108 1 55.6083 31.2259 0
1109 1 72.7897 24.9911 0
1110 2 14.8693 11.7713 0
1111 1 2.58088 56.9889 0
1112 1 76.1538 18.8382 0
1113 2 75.4099 7.73631 0
1114 2 14.1666 53.484 0
1115 2 32.9119 49.438 0
1116 1 77.1726 64.6582 0
1117 1 66.8522 56.4075 0
1118 1 12.3374 75.5577 0
1119 2 11.2604 64.558 0
1120 1 41.3579 58.0392 0
1121 2 21.2289 64.3256 0
1122 1 31.999 32.5319 0
1123 2 23.0418 51.9339 0
1124 1 52.7084 61.9357 0
1125 2 14.8611 4.37645 0
1126 2 15.5558 20.2222 0
1127 1 74.5524 24.1067 0
1128 1 67.2167 52.117 0
1129 1 60.8016 39.5428 0
1130 1 30.604 47.2868 0
1131 1 62.577 15.3311 0
1132 2 75.9545 63.6046 0
1133 2 55.9798 22.4892 0
1134 2 20.871 72.1138 0
1135 1 0.796739 68.4786 0
1136 2 51.2441 26.8143 0
1137 1 51.0042 61.3974 0
1138 1 30.3012 13.7572 0
1139 2 57.5105 52.9022 0
1140 2 9.03066 22.9568 0
1141 1 74.9582 65.6441 0
1142 1 27.0422 52.3039 0
1143 1 48.122 44.736 0
1144 2 60.9674 16.3763 0
1145 1 38.0584 62.5932 0
1146 1 15.5825 18.9105 0
1147 1 28.3144 25.6666 0
1148 1 10.8865 36.802 0
1149 1 57.4469 29.3023 0
1150 2 65.4149 61.0012 0
1151 1 22.0067 3.90595 0
1152 1 59.7648 51.958 0
1153 1 71.7219 29.5266 0
1154 1 13.981 4.74874 0
1155 2 60.2292 20.2477 0
1156 1 44.5156 32.1547 0
1157 1 12.271 18.2031 0
1158 2 58.2938 47.9554 0
1159 2 5.40089 70.4853 0
1160 1 32.9723 7.80276 0
1161 2 43.9404 56.6451 0
1162 1 15.9331 9.8985 0
1163 2 13.4009 73.095 0
1164 1 23.9852 58.9132 0
1165 1 20.9141 45.7031 0
1166 2 15.0031 50.6674 0
1167 1 27.9388 20.3188 0
1168 1 56.4114 64.6573 0
1169 1 19.511 66.7844 0
1170 2 6.38073 33.6753 0
1171 1 48.474 33.7934 0
1172 1 22.9366 6.89828 0
1173 1 51.751 64.0204 0
1174 1 38.8908 29.1988 0
1175 2 62.6665 44.5463 0
1176 1 68.2504 36.4774 0
1177 1 48.4805 70.004 0
1178 2 61.0523 47.6266 0
1179 1 72.4084 32.6646 0
1180 1 52.0363 17.8806 0
1181 1 54.3132 22.8976 0
1182 1 61.0705 74.2392 0
1183 2 43.1687 73.3993 0
1184 2 28.106 21.9816 0
1185 1 17.5506 63.2005 0
1186 1 48.8837 49.4989 0
1187 1 73.911 72.1453 0
1188 2 4.82932 37.6889 0
1189 1 60.7408 65.1768 0
1190 1 28.4183 51.4212 0
1191 2 72.1984 4.80554 0
1192 1 24.6768 47.0637 0
1193 1 47.5887 17.9095 0
1194 2 16.5777 16.033 0
1195 1 74.1275 48.7913 0
1196 1 21.8903 49.8535 0
1197 1 35.6238 38.8493 0
1198 1 62.4583 76.4111 0
1199 2 57.87 62.4376 0
1200 1 26.9415 8.85912 0
1201 1 2.87948 73.2138 0
1202 1 5.82103 48.8658 0
1203 2 47.5495 12.3863 0
1204 1 57.4409 56.5898 0
1205 1 66.5527 50.3066 0
1206 1 52.257 5.07862 0
1207 1 31.8502 62.7762 0
1208 1 75.359 58.0125 0
1209 2 65.3209 59.6039 0
1210 1 69.7851 31.9985 0
1211 2 24.8034 35.4447 0
1212 1 33.6933 36.1974 0
1213 1 61.2665 68.8396 0
1214 1 61.6812 23.659 0
1215 1 11.7332 72.7606 0
1216 1 11.219 49.5334 0
1217 2 67.5217 2.07098 0
1218 2 61.6205 20.8825 0
1219 1 30.1899 15.4516 0
1220 1 62.0025 17.9895 0
1221 1 61.5145 54.8917 0
1222 2 66.3492 74.32 0
1223 1 42.3812 48.085 0
1224 1 0.75139 34.1363 0
1225 1 2.90009 25.7233 0
1226 2 65.8728 64.7006 0
1227 1 41.5414 57.0175 0
1228 1 76.1805 70.6472 0
1229 2 47.9632 9.35332 0
1230 1 25.6367 49.8279 0
1231 2 52.8725 18.0792 0
1232 1 67.7301 38.1491 0
1233 1 38.5245 58.5711 0
1234 1 1.67845 67.8178 0
1235 1 18.1213 46.0313 0
1236 1 52.3509 63.1018 0
1237 1 37.9035 20.664 0
1238 1 24.6822 7.13964 0
1239 1 12.9101 22.7292 0
1240 1 24.4202 63.0234 0
1241 1 76.2951 62.7904 0