ITEM: TIMESTEP
0
ITEM: NUMBER OF ATOMS
7200
ITEM: BOX BOUNDS xy xz yz pp pp pp
0.0000000000000000e+00 7.7459666924100006e+01 0.0000000000000000e+00
0.0000000000000000e+00 7.7459666924100006e+01 0.0000000000000000e+00
-1.2909944490000000e-01 1.2909944490000000e-01 0.0000000000000000e+00
ITEM: ATOMS id type x y z
1 1 12.1033 20.1535 0
2 1 14.8504 64.0759 0
3 1 75.1789 71.1051 0
4 1 20.3891 8.07146 0
5 1 34.5548 55.9268 0
6 1 56.6523 28.6616 0
7 2 5.42317 3.1777 0
8 2 64.6991 46.3653 0
9 1 42.1938 56.1435 0
10 2 19.0974 14.6878 0
11 2 25.4474 53.2422 0
12 1 55.1349 11.5485 0
13 2 23.2584 5.97934 0
14 1 46.5341 70.6809 0
15 1 39.4328 31.2783 0
16 1 18.2706 14.9963 0
17 1 31.4123 40.0959 0
18 1 33.7961 5.75062 0
19 1 26.9934 57.7369 0
20 2 44.904 3.69594 0
21 1 12.1364 65.9441 0
22 1 54.3432 10.8616 0
23 1 75.6024 45.7445 0
24 1 55.9285 66.33 0
25 1 6.6994 71.0778 0
26 1 21.0418 67.6514 0
27 2 28.9999 63.739 0
28 1 51.3237 74.1749 0
29 2 22.4936 47.974 0
30 2 25.2841 32.1431 0
31 1 15.0873 53.3584 0
32 1 51.0743 38.0286 0
33 1 60.7598 48.515 0
34 2 45.2874 9.65105 0
35 1 75.1813 63.1292 0
36 1 30.5877 59.9989 0
37 1 22.1825 61.4546 0
38 1 45.8424 19.8262 0
39 1 22.4054 5.69224 0
40 2 24.876 59.1999 0
41 2 18.507 64.7583 0
42 1 21.0181 1.18168 0
43 1 18.8974 33.5068 0
44 1 34.2948 62.7515 0
45 1 3.35641 34.4875 0
46 1 68.262 7.57759 0
47 1 73.6008 59.069 0
48 1 44.1459 68.3102 0
49 2 77.2814 4.17861 0
50 1 31.0456 66.7859 0
51 1 1.36082 10.0247 0
52 2 33.1899 24.2259 0
53 1 53.6243 18.6977 0
54 1 49.6599 30.3259 0
55 1 9.63528 1.01556 0
56 1 45.9557 26.1572 0
57 1 67.4615 42.9526 0
58 1 69.7587 69.1204 0
59 1 34.219 2.16379 0
60 1 28.6512 3.39239 0
61 1 40.4523 75.9755 0
62 1 52.2488 45.0341 0
63 1 57.1823 9.89175 0
64 1 50.6654 45.7982 0
65 1 66.8895 73.7807 0
66 2 55.9988 11.4222 0
67 2 40.6565 35.9256 0
68 2 0.882693 29.1659 0
69 1 61.9816 45.3738 0
70 1 8.48585 35.5518 0
71 2 7.52892 42.2308 0
72 1 76.8148 3.34828 0
73 1 6.26851 64.1396 0
74 2 41.5931 22.7769 0
75 1 75.5347 53.321 0
76 1 19.6376 47.0509 0
77 1 25.0717 74.498 0
78 1 3.67835 15.5661 0
79 1 12.5234 73.3746 0
80 1 43.5162 16.5674 0
81 1 55.1192 62.161 0
82 2 44.3541 16.636 0
83 1 5.72519 33.0225 0
84 1 33.1045 45.758 0
85 1 34.5873 20.7843 0
86 2 34.6863 64.8204 0
87 1 71.5216 34.7286 0
88 1 18.3609 54.7424 0
89 1 27.6942 13.1255 0
90 1 37.543 37.9387 0
91 2 46.0018 41.1991 0
92 2 41.3163 56.1178 0
93 1 27.7699 16.9468 0
94 1 33.4447 55.6623 0
95 2 39.2414 56.7665 0
96 1 65.3062 1.33216 0
97 1 44.29 49.0507 0
98 2 2.8271 60.0583 0
99 1 61.8329 48.2132 0
100 2 32.4178 30.8424 0
101 1 47.713 54.3746 0
102 1 56.0851 21.5695 0
103 1 56.618 70.4588 0
104 1 2.71241 60.9148 0
105 2 40.0826 3.07319 0
106 2 30.4204 34.8117 0
107 1 13.2111 31.384 0
108 1 0.818485 0.872404 0
109 1 35.703 41.6186 0
110 2 65.1258 25.5359 0
111 1 66.0448 11.9773 0
112 1 34.152 72.7914 0
113 2 0.336102 60.361 0
114 2 74.5102 29.4437 0
115 2 30.3489 12.8009 0
116 2 74.7031 53.5363 0
117 1 16.2036 45.9266 0
118 2 46.8513 26.5564 0
119 1 62.6407 0.128568 0
120 2 5.90316 49.8243 0
121 1 6.22292 3.55487 0
122 1 19.6804 32.8447 0
123 2 5.45494 17.6905 0
124 1 46.3791 57.2621 0
125 1 31.6784 27.3737 0
126 1 58.0801 52.1448 0
127 1 4.44563 59.056 0
128 1 14.4593 23.5193 0
129 1 16.4238 52.1959 0
130 1 7.19453 2.09653 0
131 1 59.0203 24.9325 0
132 2 31.2302 41.8808 0
133 2 52.6515 6.91638 0
134 1 65.8492 50.9972 0
135 1 31.4885 30.4018 0
136 2 55.2486 46.4712 0
137 1 61.7831 56.6504 0
138 2 70.3812 47.9921 0
139 1 68.3879 27.1807 0
140 1 3.53411 21.7802 0
141 2 48.1333 63.5399 0
142 1 6.57311 22.593 0
143 2 40.5248 70.1113 0
144 2 47.2099 75.294 0
145 2 18.2568 52.9297 0
146 1 54.8372 4.0583 0
147 1 9.43131 38.9531 0
148 1 46.3682 53.3389 0
149 2 67.9735 49.1275 0
150 1 32.7908 56.5814 0
151 2 29.4773 13.8526 0
152 1 48.9254 63.0947 0
153 2 17.3915 46.4875 0
154 2 31.5339 72.2642 0
155 1 70.4484 48.9197 0
156 1 43.461 10.3273 0
157 1 49.2666 70.9483 0
158 1 60.1583 69.2581 0
159 2 10.5792 26.0832 0
160 1 38.1657 17.4777 0
161 1 7.18551 63.6104 0
162 2 72.6934 23.9459 0
163 1 30.6011 27.0598 0
164 1 60.2009 29.4413 0
165 1 75.6867 27.8176 0
166 1 1.90642 44.7097 0
167 1 39.2144 0.944989 0
168 1 38.4744 72.8368 0
169 1 56.8069 31.0004 0
170 1 57.3245 0.918638 0
171 2 36.8268 61.0333 0
172 2 33.762 53.7169 0
173 2 43.88 24.3641 0
174 2 27.4868 55.9813 0
175 2 30.9569 26.2668 0
176 1 46.2462 16.2657 0
177 1 19.6522 58.6203 0
178 1 61.8735 61.3008 0
179 1 64.6016 24.8454 0
180 2 33.2806 39.7549 0
181 1 45.1883 27.6256 0
182 1 61.8686 58.5752 0
183 2 12.08 37.3585 0
184 1 5.1792 67.5129 0
185 2 67.1499 29.4676 0
186 1 59.0597 35.0834 0
187 1 39.584 46.4695 0
188 1 57.3667 47.7115 0
189 2 63.8799 53.0497 0
190 1 23.2133 4.09533 0
191 1 71.8404 8.13854 0
192 1 65.4892 10.2773 0
193 2 10.8673 41.6342 0
194 2 68.5917 69.0583 0
195 1 11.191 3.33999 0
196 2 49.6201 54.8259 0
197 2 20.2279 9.91023 0
198 1 13.3502 61.2353 0
199 2 75.6598 66.2293 0
200 1 59.8599 27.6966 0
201 2 34.6764 1.38989 0
202 2 74.6435 55.166 0
203 1 52.4022 65.6791 0
204 1 29.6439 3.79286 0
205 1 56.1365 26.0298 0
206 2 35.7492 37.0185 0
207 2 13.9757 9.44966 0
208 1 33.7371 14.0159 0
209 1 12.179 11.5835 0
210 2 5.3637 20.5654 0
211 1 17.2039 8.05481 0
212 2 24.8161 6.30781 0
213 2 56.0602 27.9769 0
214 1 71.1198 57.8136 0
215 2 66.9685 22.3687 0
216 1 20.6645 73.6149 0
217 1 59.5102 34.1085 0
218 2 54.7939 58.5088 0
219 2 67.9827 42.2352 0
220 2 42.6344 63.8596 0
221 1 18.9953 45.4357 0
222 1 44.9573 12.4662 0
223 2 39.1573 67.7488 0
224 2 27.7581 68.6505 0
225 1 32.4356 23.7193 0
226 2 66.4972 57.1652 0
227 2 6.06151 16.3702 0
228 1 34.5396 9.27779 0
229 1 71.0285 26.8358 0
230 1 32.1696 74.5756 0
231 1 10.7206 34.3204 0
232 1 42.0339 12.873 0
233 1 34.8044 7.59104 0
234 1 76.1039 8.40982 0
235 1 60.8344 59.0464 0
236 2 44.6751 70.3666 0
237 1 77.1341 62.2468 0
238 2 9.32726 21.449 0
239 1 58.3718 2.73366 0
240 2 61.6554 46.183 0
241 1 47.4391 66.6357 0
242 1 18.5961 30.6309 0
243 1 7.15145 56.3466 0
244 1 61.1991 64.3265 0
245 1 11.0312 30.8175 0
246 1 1.99306 35.5908 0
247 1 65.6801 49.952 0
248 1 12.3016 0.815576 0
249 2 50.3637 41.2626 0
250 1 29.0384 9.41378 0
251 2 57.7336 50.2077 0
252 2 65.766 23.2572 0
253 1 19.8713 17.6282 0
254 1 54.3661 25.0203 0
255 1 65.5775 42.8284 0
256 1 31.3344 8.52652 0
257 1 22.1527 57.8639 0
258 1 26.2114 38.7494 0
259 1 55.6578 56.6523 0
260 2 43.9656 53.8575 0
261 2 26.4064 62.7349 0
262 1 24.3373 33.8354 0
263 2 12.7301 34.6894 0
264 2 71.432 59.925 0
265 1 76.973 46.6882 0
266 1 38.172 44.8404 0
267 2 61.5855 24.5999 0
268 2 56.6941 45.845 0
269 1 48.1129 20.9833 0
270 2 9.10124 47.0959 0
271 2 22.5983 33.7764 0
272 2 20.3852 14.2929 0
273 1 14.8922 65.1207 0
274 1 32.2937 49.9826 0
275 1 8.62292 48.9761 0
276 1 75.355 10.2081 0
277 2 15.5271 71.3802 0
278 1 7.57052 17.4424 0
279 1 4.46343 44.3983 0
280 1 20.351 35.7057 0
281 1 30.7032 38.5998 0
282 2 75.9367 26.3958 0
283 1 76.464 55.7838 0
284 2 54.3095 38.4241 0
285 1 71.0669 52.8998 0
286 1 11.3416 63.3681 0
287 1 19.044 76.8333 0
288 2 75.7046 3.85824 0
289 2 21.3691 39.2344 0
290 2 69.1498 76.5397 0
291 1 35.2318 22.6203 0
292 1 27.7314 58.4823 0
293 1 47.3777 18.99 0
294 1 40.3146 2.23462 0
295 1 69.8574 3.43925 0
296 2 74.1708 8.52855 0
297 1 40.3615 59.7928 0
298 1 72.5464 35.0716 0
299 2 49.2933 36.6139 0
300 1 39.2546 43.8064 0
301 1 73.4762 19.7305 0
302 1 50.907 35.2185 0
303 1 20.6261 32.239 0
304 1 60.5148 72.4066 0
305 2 59.09 75.9207 0
306 1 63.1504 52.5762 0
307 2 73.4063 38.8315 0
308 1 41.5154 5.22103 0
309 2 24.9477 16.9547 0
310 2 13.3719 12.9578 0
311 1 29.3035 49.5624 0
312 1 67.3363 61.6213 0
313 1 74.7329 76.175 0
314 1 40.6147 46.035 0
315 2 56.3761 31.7993 0
316 2 39.5991 63.3954 0
317 1 50.9085 20.6047 0
318 2 7.09529 31.2309 0
319 1 30.9258 25.3664 0
320 1 36.1503 61.6501 0
321 1 58.6863 68.3686 0
322 2 74.0396 11.8601 0
323 2 25.0348 63.5306 0
324 1 64.3774 41.4752 0
325 1 41.2267 6.25261 0
326 1 9.73906 58.9488 0
327 1 48.7695 54.7182 0
328 1 0.78479 37.0801 0
329 1 41.7555 42.6915 0
330 2 51.7081 34.8898 0
331 2 70.1259 4.26019 0
332 1 59.4363 28.7126 0
333 1 36.9475 12.2353 0
334 1 17.0527 34.8224 0
335 1 20.6331 38.749 0
336 2 72.2306 74.4622 0
337 1 34.7069 33.7916 0
338 2 17.0758 1.62163 0
339 1 42.4228 68.3887 0
340 1 18.8848 57.8823 0
341 2 74.0414 44.2383 0
342 1 66.9998 5.90501 0
343 2 56.4602 49.7938 0
344 2 22.7555 66.0572 0
345 1 7.9789 27.8104 0
346 1 17.5463 71.7874 0
347 1 35.4014 56.5844 0
348 1 56.5425 18.8697 0
349 1 33.7258 20.1379 0
350 1 37.1344 31.1833 0
351 1 17.9131 53.7595 0
352 1 47.8599 30.7889 0
353 1 75.3093 25.786 0
354 2 22.5732 26.2895 0
355 2 43.4389 18.1762 0
356 2 11.8632 2.78688 0
357 1 68.4545 67.4644 0
358 1 24.2662 3.81516 0
359 1 22.3057 14.5327 0
360 2 45.2294 31.2522 0
361 2 48.1462 67.1694 0
362 1 27.0772 74.6348 0
363 2 37.935 73.5104 0
364 1 13.0647 66.5302 0
365 2 8.90879 57.2089 0
366 1 24.9521 50.6473 0
367 2 19.8053 23.4235 0
368 2 51.3576 55.0201 0
369 2 65.1959 70.5909 0
370 1 3.50874 28.3578 0
371 1 46.0136 73.4497 0
372 2 40.5082 9.94473 0
373 1 10.4896 31.7757 0
374 2 66.5706 41.2053 0
375 1 52.2947 52.799 0
376 2 75.4495 43.1783 0
377 2 58.2124 38.1199 0
378 1 20.3821 63.8629 0
379 1 13.847 20.2619 0
380 1 9.85209 62.4779 0
381 1 26.6892 23.3754 0
382 1 30.7531 23.5975 0
383 1 9.62871 11.7342 0
384 1 34.9752 51.7213 0
385 1 28.3893 77.1438 0
386 1 54.9568 40.4174 0
387 1 59.587 76.6148 0
388 2 56.0236 57.7375 0
389 1 24.5909 56.7175 0
390 1 29.4246 12.986 0
391 2 59.7939 26.7374 0
392 2 29.9864 10.1068 0
393 2 38.7409 64.8803 0
394 1 10.268 73.7928 0
395 1 53.183 21.9272 0
396 1 13.7828 70.5281 0
397 1 46.8259 17.2296 0
398 1 45.437 70.8245 0
399 1 69.9834 18.1151 0
400 1 59.8192 74.248 0
401 1 44.5611 11.4879 0
402 2 56.6122 16.9414 0
403 1 38.3494 51.6568 0
404 1 69.2879 70.8376 0
405 2 73.8464 76.3341 0
406 1 34.2246 19.1089 0
407 2 45.6934 21.778 0
408 1 63.6203 30.4171 0
409 1 18.579 61.3913 0
410 2 67.4054 16.7505 0
411 2 66.6575 36.4642 0
412 1 58.9331 38.6303 0
413 1 7.08011 36.5354 0
414 1 71.3005 48.167 0
415 1 7.07668 41.5226 0
416 2 73.6827 62.3787 0
417 2 75.1357 12.7567 0
418 1 54.243 30.0923 0
419 2 56.7131 47.1708 0
420 2 24.8528 55.9238 0
421 1 60.3636 19.3651 0
422 1 2.02669 71.446 0
423 1 4.2215 12.0223 0
424 1 60.7051 26.9664 0
425 1 58.8624 50.4462 0
426 1 56.0256 73.7104 0
427 2 39.531 14.8504 0
428 1 51.5537 50.1886 0
429 1 59.0758 71.0757 0
430 1 36.6807 37.1602 0
431 1 0.0831703 29.5756 0
432 1 63.4363 49.0264 0
433 1 29.1956 69.4415 0
434 1 1.8492 42.8458 0
435 1 64.0873 34.1495 0
436 2 68.0061 38.9189 0
437 2 43.901 59.4377 0
438 1 38.9137 61.7586 0
439 2 41.1984 12.611 0
440 1 43.4426 43.6549 0
441 2 66.6565 15.2918 0
442 1 9.64344 37.9014 0
443 1 54.6107 16.8262 0
444 1 16.7749 75.3797 0
445 2 69.4223 67.537 0
446 1 61.6648 42.2017 0
447 1 27.0562 70.9153 0
448 1 46.9428 37.689 0
449 1 37.0963 73.2941 0
450 2 48.2652 59.515 0
451 2 6.53474 61.7216 0
452 1 66.6823 11.1347 0
453 1 28.6839 76.0705 0
454 2 62.6298 29.8555 0
455 2 26.5016 67.9029 0
456 1 11.4125 44.5662 0
457 2 18.5444 1.83455 0
458 1 38.0004 77.1193 0
459 2 15.5714 56.7706 0
460 1 5.48338 4.3662 0
461 2 27.2309 27.0879 0
462 1 45.8282 24.4087 0
463 1 75.865 69.6785 0
464 1 9.09964 47.9797 0
465 2 40.7744 45.1376 0
466 1 21.706 12.8329 0
467 2 11.5587 1.3246 0
468 1 19.3426 36.2407 0
469 1 1.94121 2.15483 0
470 1 61.7772 10.4186 0
471 2 74.0089 40.8747 0
472 1 25.4687 43.1227 0
473 1 61.5866 65.8375 0
474 1 33.5876 54.5758 0
475 1 22.4754 59.7653 0
476 2 38.9571 32.0635 0
477 1 60.5965 11.5355 0
478 2 33.1388 74.5323 0
479 1 33.3964 22.2946 0
480 1 19.8738 25.6333 0
481 1 7.1559 18.6526 0
482 1 10.9686 25.2583 0
483 2 1.15149 1.69167 0
484 1 14.4229 38.296 0
485 1 21.3157 57.1797 0
486 1 7.16813 4.64569 0
487 2 71.0012 10.4419 0
488 1 58.8172 5.4444 0
489 1 52.3052 15.1861 0
490 1 35.3923 31.1274 0
491 1 30.6211 42.5749 0
492 2 61.1918 9.7276 0
493 1 73.3878 9.0086 0
494 1 67.6784 31.9774 0
495 2 22.5379 49.2803 0
496 2 52.7765 42.1113 0
497 2 40.7196 6.96188 0
498 1 23.5915 25.8832 0
499 1 35.756 74.3948 0
500 1 2.6788 4.15916 0
501 2 45.5441 43.5203 0
502 1 16.7674 24.8527 0
503 1 50.1817 9.82348 0
504 1 37.0484 32.7103 0
505 2 26.5233 77.033 0
506 2 17.5432 65.2835 0
507 1 41.9582 37.3282 0
508 1 12.8986 32.7354 0
509 1 28.9664 24.811 0
510 1 6.98928 38.7158 0
511 1 69.2617 26.6055 0
512 1 54.5407 53.2906 0
513 1 11.9008 34.2408 0
514 1 25.2538 64.3407 0
515 2 61.3955 11.1824 0
516 2 11.4692 38.5484 0
517 2 74.4301 74.5753 0
518 2 19.1205 54.2711 0
519 2 33.2945 1.90684 0
520 1 74.5283 37.0745 0
521 1 42.0996 24.4739 0
522 2 24.3604 66.1356 0
523 1 77.3014 12.2566 0
524 1 70.4986 34.6497 0
525 1 22.8053 0.0459263 0
526 2 76.5212 22.3219 0
527 1 49.4561 26.1757 0
528 2 74.4463 5.15108 0
529 2 35.229 45.2592 0
530 1 7.82163 59.5181 0
531 2 76.3629 68.9335 0
532 2 32.1817 60.9068 0
533 1 72.8169 5.54928 0
534 1 34.5428 27.164 0
535 1 29.0906 19.2535 0
536 1 32.5883 65.8353 0
537 1 35.0795 47.9345 0
538 2 16.4317 21.6532 0
539 2 45.9865 76.8479 0
540 1 60.8507 40.6657 0
541 2 24.9288 8.05785 0
542 1 51.2632 56.7806 0
543 2 69.6959 55.6036 0
544 2 51.9747 10.5058 0
545 1 28.3105 22.8611 0
546 1 34.3216 3.26156 0
547 1 10.2362 14.3471 0
548 2 23.6759 3.20809 0
549 2 65.3522 21.8814 0
550 2 5.1729 39.3757 0
551 1 30.2873 8.22866 0
552 2 70.5525 40.2213 0
553 2 29.5235 44.9064 0
554 1 51.7212 62.2374 0
555 1 50.2706 57.2718 0
556 1 72.966 68.0247 0
557 1 62.0918 53.9038 0
558 1 2.60156 68.4681 0
559 1 72.759 36.1706 0
560 2 21.3446 61.5019 0
561 1 5.62703 0.646198 0
562 2 4.56737 11.1794 0
563 2 54.0728 48.8377 0
564 1 70.1462 68.1625 0
565 2 21.8923 1.37674 0
566 2 18.2125 23.7765 0
567 1 48.926 42.1926 0
568 2 22.8649 74.09 0
569 2 15.73 27.5227 0
570 1 73.149 34.2072 0
571 1 0.405802 3.5396 0
572 2 6.71901 48.5517 0
573 2 77.3943 44.8707 0
574 1 3.77419 69.0782 0
575 1 18.3187 7.61641 0
576 1 16.4035 63.1407 0
577 1 43.4568 50.4618 0
578 2 67.754 34.1836 0
579 2 45.9368 69.144 0
580 1 62.6595 42.609 0
581 1 6.59453 60.8044 0
582 2 68.6633 59.6089 0
583 2 64.1575 58.6175 0
584 2 33.388 65.4867 0
585 1 60.9407 0.033514 0
586 1 48.7677 58.6304 0
587 2 14.7044 21.8373 0
588 1 49.4712 5.20168 0
589 2 53.6969 10.2792 0
590 1 24.6671 73.5226 0
591 1 56.2293 6.4995 0
592 1 48.5695 74.3128 0
593 1 44.0833 13.1853 0
594 1 59.8483 63.3325 0
595 1 72.1341 65.3967 0
596 2 7.12716 1.21738 0
597 1 3.47748 43.9696 0
598 1 69.0554 9.21807 0
599 1 2.71269 50.8788 0
600 1 0.129597 47.5108 0
601 2 42.0855 36.1111 0
602 1 62.1828 14.2767 0
603 2 71.1751 50.7339 0
604 2 62.2972 16.4144 0
605 1 52.4489 69.1904 0
606 1 41.5121 4.03166 0
607 1 76.2588 1.36548 0
608 2 1.33088 40.343 0
609 2 40.8355 0.462103 0
610 1 7.86221 49.8111 0
611 1 53.8911 58.7416 0
612 1 76.6632 6.2312 0
613 1 77.0016 23.0862 0
614 2 50.4911 28.4816 0
615 1 34.6078 38.9161 0
616 1 39.7514 16.1487 0
617 1 68.9993 2.68687 0
618 2 11.9975 42.6494 0
619 2 55.2502 42.323 0
620 2 70.8507 74.0399 0
621 2 58.4558 35.7176 0
622 1 60.2394 18.2544 0
623 1 37.4279 11.3285 0
624 2 20.4483 54.7887 0
625 1 26.9902 76.2926 0
626 1 73.7474 29.0708 0
627 2 2.335 25.0963 0
628 1 28.7251 58.0684 0
629 2 77.4573 25.5156 0
630 1 29.2819 73.1094 0
631 1 56.9418 37.0998 0
632 1 21.5927 65.0985 0
633 2 25.6014 72.0216 0
634 1 18.75 50.7024 0
635 2 41.5408 43.7337 0
636 2 37.0944 40.8022 0
637 1 11.2475 11.006 0
638 1 67.2497 40.7148 0
639 1 70.2029 46.3197 0
640 1 0.145986 53.9003 0
641 1 36.4858 33.6721 0
642 1 9.6882 33.8958 0
643 1 50.3147 44.8129 0
644 2 19.3616 27.2957 0
645 1 56.9964 52.2778 0
646 1 46.2696 47.0403 0
647 2 23.7055 10.4251 0
648 1 64.2633 12.3561 0
649 2 10.7215 69.1082 0
650 2 47.2222 61.9933 0
651 1 46.1495 12.2422 0
652 1 29.6359 71.0029 0
653 2 13.6742 23.2102 0
654 2 10.3901 3.73761 0
655 1 5.55268 51.8209 0
656 1 72.8722 53.8231 0
657 1 33.7746 46.5704 0
658 1 71.6235 13.2956 0
659 2 0.81066 66.2216 0
660 1 26.8057 35.6829 0
661 1 37.2829 9.79672 0
662 1 32.7434 59.9835 0
663 1 10.6814 28.7064 0
664 1 58.4295 75.322 0
665 2 49.1618 76.8662 0
666 2 12.7458 58.2432 0
667 1 26.3968 73.8274 0
668 2 7.63442 76.2249 0
669 1 4.34654 9.21159 0
670 2 43.9186 37.7388 0
671 2 37.3001 17.4781 0
672 1 10.0148 19.6096 0
673 1 6.95376 16.5885 0
674 1 32.7133 42.6538 0
675 2 4.78671 58.2022 0
676 2 37.9934 6.35677 0
677 1 41.3873 54.0718 0
678 1 53.7835 39.152 0
679 1 46.6978 69.6028 0
680 1 31.7682 53.6155 0
681 1 26.3354 54.1308 0
682 1 62.509 59.5585 0
683 1 18.0958 59.3548 0
684 1 64.3869 68.9411 0
685 2 35.9264 18.7307 0
686 1 50.3796 6.23743 0
687 1 41.6073 18.9313 0
688 2 53.5359 73.6374 0
689 1 72.0123 62.4302 0
690 1 66.0129 72.2946 0
691 1 41.7945 39.9678 0
692 2 59.9099 44.024 0
693 1 71.2778 76.9369 0
694 2 53.7188 64.2705 0
695 1 42.3427 11.8138 0
696 2 35.637 47.0359 0
697 1 25.6127 13.3669 0
698 1 8.36591 3.41507 0
699 1 66.6668 13.8713 0
700 1 71.9436 46.9813 0
701 1 64.198 31.2994 0
702 1 63.6163 65.304 0
703 2 71.9129 2.22251 0
704 2 8.23532 61.2992 0
705 2 4.93642 7.27738 0
706 1 52.2728 51.7301 0
707 2 59.784 38.4631 0
708 1 50.3654 43.1242 0
709 1 51.6086 73.1686 0
710 2 60.3233 28.5929 0
711 1 56.0331 54.1386 0
712 2 62.8163 32.69 0
713 2 68.3652 70.5091 0
714 2 0.579323 64.8901 0
715 1 45.236 18.9191 0
716 1 76.5346 29.8371 0
717 1 29.7913 63.3921 0
718 1 14.3191 3.66111 0
719 1 53.3362 36.9967 0
720 2 49.2433 38.4312 0
721 2 66.8451 39.7437 0
722 1 49.0369 7.99041 0
723 2 39.9159 75.345 0
724 2 10.3793 59.5309 0
725 1 50.7044 39.2855 0
726 1 8.23133 29.9348 0
727 2 12.9244 1.4088 0
728 1 67.5387 55.545 0
729 2 21.5696 59.6459 0
730 1 32.8528 27.4456 0
731 2 16.6704 36.4923 0
732 1 16.3429 54.3603 0
733 1 29.8517 29.6288 0
734 2 66.4442 46.3925 0
735 1 66.67 67.2275 0
736 1 47.9104 49.4003 0
737 2 4.17007 45.6842 0
738 1 13.6656 34.5581 0
739 1 18.102 37.492 0
740 1 48.513 37.9878 0
741 2 57.2813 55.6396 0
742 1 58.9754 37.5921 0
743 1 27.1678 62.1253 0
744 2 72.7753 19.0714 0
745 1 23.1547 72.7326 0
746 1 35.1048 10.1609 0
747 1 47.4689 76.1416 0
748 2 43.1563 69.9533 0
749 2 22.375 24.4473 0
750 1 55.3376 35.1109 0
751 1 57.8068 40.1771 0
752 2 2.41605 70.4394 0
753 1 53.042 39.9166 0
754 2 21.747 15.254 0
755 1 24.0654 50.0106 0
756 2 49.336 75.8952 0
757 1 48.347 19.3877 0
758 1 6.07591 9.72052 0
759 1 61.7326 47.0778 0
760 1 12.2584 10.4867 0
761 1 69.8165 71.764 0
762 1 15.2318 57.6047 0
763 2 77.1012 7.03092 0
764 1 75.158 57.0432 0
765 2 47.1183 56.8169 0
766 1 63.2243 22.6996 0
767 1 13.7254 1.08883 0
768 1 65.3829 8.10609 0
769 1 61.8403 50.0782 0
770 2 60.4616 73.6418 0
771 1 18.9276 40.0306 0
772 1 45.0267 51.119 0
773 1 40.7709 43.2611 0
774 2 32.5846 25.6881 0
775 1 71.7242 30.562 0
776 2 43.7118 42.8216 0
777 1 70.5105 55.2823 0
778 2 10.4391 63.1077 0
779 1 45.2385 25.2999 0
780 1 17.084 6.17708 0
781 1 29.6276 35.1948 0
782 1 57.454 64.7936 0
783 1 60.6465 35.534 0
784 1 70.7881 49.9488 0
785 2 8.806 11.3389 0
786 1 73.1233 70.1698 0
787 1 20.9144 66.6019 0
788 1 39.8726 54.8188 0
789 1 11.0057 4.38954 0
790 1 52.1282 70.2376 0
791 1 45.8367 13.2701 0
792 1 8.61167 25.0588 0
793 1 25.1921 14.9723 0
794 2 71.2607 16.7189 0
795 2 75.6744 14.1802 0
796 2 75.5975 67.8945 0
797 1 44.5446 65.345 0
798 1 38.4525 19.04 0
799 1 44.2364 76.4177 0
800 1 30.5931 70.5382 0
801 2 6.47323 25.9128 0
802 2 28.0246 45.5818 0
803 2 23.6449 77.1476 0
804 2 52.6031 36.0189 0
805 1 23.8402 71.9386 0
806 1 53.0584 70.8407 0
807 2 39.8898 50.5014 0
808 1 50.5795 47.1139 0
809 2 36.331 62.487 0
810 1 58.4828 76.5495 0
811 1 28.6979 61.0247 0
812 2 59.7177 48.2616 0
813 2 46.3205 58.13 0
814 1 54.3034 31.2314 0
815 2 41.0769 17.0096 0
816 1 28.0599 34.4478 0
817 1 67.6616 75.7421 0
818 2 36.816 16.115 0
819 2 45.7436 56.6656 0
820 1 66.8573 69.8753 0
821 1 16.6932 64.885 0
822 1 56.7473 76.6878 0
823 1 17.1062 55.7843 0
824 2 35.2718 42.4307 0
825 1 29.2164 41.6091 0
826 1 32.8527 75.3575 0
827 1 7.31253 26.1214 0
828 1 76.9158 51.0779 0
829 1 72.1718 40.2208 0
830 2 47.9114 64.5281 0
831 2 43.3036 4.63122 0
832 1 73.9846 14.3361 0
833 1 24.4782 43.461 0
834 2 48.6126 5.57464 0
835 1 68.4458 6.55104 0
836 1 58.1315 27.7372 0
837 1 56.3792 41.2184 0
838 1 38.9982 52.8296 0
839 1 16.1123 60.24 0
840 2 15.7058 46.7105 0
841 1 36.939 52.6588 0
842 2 11.0311 61.1566 0
843 1 5.53243 42.3749 0
844 1 63.4655 21.5993 0
845 2 27.9718 2.30506 0
846 1 49.5196 39.2711 0
847 1 10.8697 57.6946 0
848 2 68.9589 47.6222 0
849 1 74.1425 11.0173 0
850 1 67.9415 19.7594 0
851 1 39.4501 18.6663 0
852 1 12.2388 1.92855 0
853 1 42.4614 61.5427 0
854 1 37.6395 69.7563 0
855 1 39.5339 25.6531 0
856 2 18.7564 42.0102 0
857 1 57.861 33.9893 0
858 2 34.4488 28.9046 0
859 1 13.11 64.7789 0
860 2 2.06506 58.4728 0
861 2 60.2331 40.0797 0
862 2 2.93362 69.2466 0
863 1 58.9079 23.7812 0
864 1 60.3298 53.8004 0
865 2 66.1491 68.0563 0
866 1 60.4788 17.1623 0
867 2 31.5802 21.88 0
868 1 37.158 61.9161 0
869 1 62.1606 20.1354 0
870 1 0.0652497 52.7149 0
871 1 62.7267 26.0938 0
872 1 42.4257 50.7795 0
873 1 50.7498 62.5374 0
874 1 3.97921 71.6603 0
875 1 34.0663 57.7269 0
876 2 51.5104 7.92949 0
877 1 13.2747 55.5468 0
878 2 14.7809 16.0371 0
879 1 76.5581 14.088 0
880 2 31.7044 33.5522 0
881 2 51.9778 29.306 0
882 2 48.0611 73.5591 0
883 1 25.6682 20.008 0
884 1 55.9958 36.6203 0
885 1 38.903 5.11634 0
886 1 37.0382 60.0992 0
887 2 54.7742 50.2764 0
888 1 0.445445 76.5985 0
889 2 59.216 49.657 0
890 2 7.77598 25.3482 0
891 1 38.1747 10.4988 0
892 1 40.1671 67.7916 0
893 1 30.0641 53.6827 0
894 1 77.0818 15.0039 0
895 2 32.4166 53.0177 0
896 1 37.6 2.59434 0
897 2 35.707 17.0851 0
898 1 31.1499 43.6417 0
899 1 2.00272 75.7852 0
900 2 38.6377 0.263744 0
901 1 52.2509 41.4345 0
902 1 24.309 75.3039 0
903 1 37.947 40.6392 0
904 2 0.114081 37.6173 0
905 1 63.7152 62.1349 0
906 1 68.8864 44.6486 0
907 1 3.73253 29.8347 0
908 1 50.7134 23.8843 0
909 1 0.308402 48.6033 0
910 2 1.88514 50.6548 0
911 2 4.61644 4.58664 0
912 2 36.1328 32.813 0
913 2 31.9021 51.6578 0
914 1 18.2696 12.9134 0
915 2 64.7181 5.45533 0
916 1 3.43212 39.7811 0
917 2 4.98955 33.5098 0
918 2 19.5598 35.3675 0
919 1 8.18681 57.7888 0
920 1 15.8539 47.6646 0
921 1 0.138049 26.6257 0
922 2 50.7855 18.9105 0
923 2 12.3294 24.3243 0
924 1 39.2747 17.5599 0
925 1 66.2848 47.3036 0
926 2 35.4474 35.3228 0
927 1 68.873 77.4388 0
928 1 52.2367 59.0347 0
929 2 51.994 32.1589 0
930 2 19.9662 15.8463 0
931 1 40.9097 47.5862 0
932 1 70.4099 39.1224 0
933 1 34.3869 21.8624 0
934 1 1.96727 60.1424 0
935 1 11.3529 50.6552 0
936 2 42.1435 4.624 0
937 1 14.1729 73.1879 0
938 1 36.7048 67.6755 0
939 2 50.4753 51.2922 0
940 1 75.8809 46.7874 0
941 1 77.2408 17.4975 0
942 1 37.8814 29.8265 0
943 2 22.3054 16.6706 0
944 2 2.05068 41.9434 0
945 1 40.4901 25.2171 0
946 1 64.5103 67.2589 0
947 2 25.1499 2.07871 0
948 1 39.3666 68.5783 0
949 1 26.7786 11.7219 0
950 2 5.15099 9.76627 0
951 1 68.8384 65.5259 0
952 2 52.6526 2.70594 0
953 2 7.79314 44.8126 0
954 2 29.9179 62.546 0
955 1 27.278 38.6316 0
956 2 58.805 10.8363 0
957 1 48.3603 23.6177 0
958 2 19.5321 2.71137 0
959 2 73.6018 24.9897 0
960 2 29.1105 66.8933 0
961 1 49.5657 52.0765 0
962 1 24.3744 1.65263 0
963 1 16.2892 12.6383 0
964 2 8.72259 9.59495 0
965 2 53.8063 53.7249 0
966 1 0.635966 62.8718 0
967 1 49.94 35.6215 0
968 1 18.3158 0.149666 0
969 1 57.9793 23.3226 0
970 2 22.5372 4.65202 0
971 1 21.2598 14.5258 0
972 1 6.86184 25.1239 0
973 1 0.916026 35.9491 0
974 2 1.07237 35.0414 0
975 2 73.0077 65.4111 0
976 2 34.5791 19.886 0
977 1 35.9836 63.2726 0
978 2 3.07096 77.0166 0
979 2 36.1363 65.8034 0
980 1 72.9454 14.3249 0
981 1 73.7311 58.0098 0
982 1 7.77303 54.74 0
983 1 18.4231 24.603 0
984 1 9.23727 58.0174 0
985 1 34.5721 11.1631 0
986 1 37.9989 52.6508 0
987 2 18.1003 12.0691 0
988 2 42.1871 34.8825 0
989 2 9.94466 34.7808 0
990 2 69.9654 51.7039 0
991 2 46.2944 14.8304 0
992 1 62.3851 34.5973 0
993 2 29.1474 5.70132 0
994 2 1.83851 54.9214 0
995 1 38.9232 22.2486 0
996 2 54.8027 56.9331 0
997 2 43.5033 30.8866 0
998 2 60.376 74.9836 0
999 2 39.3317 26.4779 0
1000 2 0.524207 49.4728 0
1001 1 41.7819 65.6081 0
1002 1 23.3242 34.4571 0
1003 1 9.45385 54.2546 0
1004 1 7.65366 22.3639 0
1005 2 10.7961 23.7239 0
1006 2 67.8404 60.867 0
1007 1 18.896 20.3132 0
1008 1 47.7949 16.883 0
1009 1 31.0774 32.9653 0
1010 1 11.5746 43.4759 0
1011 2 10.5885 22.328 0
1012 2 2.33666 23.2488 0
1013 2 65.1425 55.9912 0
1014 1 74.2075 15.4747 0
1015 1 76.1301 9.43705 0
1016 1 37.1975 48.0749 0
1017 2 68.8324 54.2919 0
1018 1 26.1927 25.0365 0
1019 1 44.3515 29.0811 0
1020 2 32.5094 6.2696 0
1021 2 15.9702 24.5752 0
1022 1 4.80948 60.9301 0
1023 1 41.1377 9.32931 0
1024 1 9.26543 67.7228 0
1025 1 37.1049 65.8494 0
1026 1 7.97259 40.1489 0
1027 1 47.4421 2.54546 0
1028 1 1.96211 32.8884 0
1029 1 49.0203 18.1547 0
1030 2 46.9585 48.1196 0
1031 2 37.5453 37.052 0
1032 1 16.4425 73.0978 0
1033 1 57.5797 19.2081 0
1034 1 35.2395 29.3168 0
1035 1 65.8251 28.397 0
1036 2 73.5368 45.9205 0
1037 1 31.2172 73.0819 0
1038 1 68.6293 60.484 0
1039 1 5.55113 31.9437 0
1040 2 65.0058 34.1715 0
1041 1 35.4419 65.2388 0
1042 2 62.7195 68.1682 0
1043 2 60.7579 58.1982 0
1044 1 67.6817 23.4347 0
1045 1 66.6554 23.2453 0
1046 1 41.17 68.2271 0
1047 2 9.8922 47.6277 0
1048 1 53.4519 0.00670041 0
1049 1 59.9009 49.1274 0
1050 2 45.5058 6.38908 0
1051 1 43.5597 31.8541 0
1052 1 66.1783 44.4857 0
1053 2 32.7071 18.415 0
1054 1 55.1384 6.99544 0
1055 2 32.8634 46.6575 0
1056 2 14.65 45.2433 0
1057 1 11.9491 71.6847 0
1058 1 27.428 5.82579 0
1059 1 9.22091 75.2587 0
1060 2 21.8948 42.0463 0
1061 1 10.1445 23.1386 0
1062 2 16.9888 41.4813 0
1063 1 0.0341877 67.8638 0
1064 1 23.2721 5.13078 0
1065 2 29.7599 52.8279 0
1066 1 37.4215 46.3338 0
1067 1 13.924 10.3691 0
1068 2 35.624 67.1206 0
1069 1 67.9119 24.4458 0
1070 2 8.2308 34.4191 0
1071 2 49.5503 42.8215 0
1072 2 9.48486 48.7562 0
1073 2 16.3623 3.48245 0
1074 2 33.8651 45.2542 0
1075 1 75.9299 49.7012 0
1076 1 41.267 7.61479 0
1077 1 41.7576 32.6785 0
1078 2 71.7206 26.288 0
1079 2 39.0705 10.8345 0
1080 2 30.1102 72.8389 0
1081 2 45.9969 48.9326 0
1082 2 6.32928 27.5897 0
1083 2 21.6422 19.9642 0
1084 1 44.2621 57.5308 0
1085 1 19.1033 52.4004 0
1086 1 70.1423 67.0327 0
1087 1 29.5957 72.0823 0
1088 1 44.7392 63.0078 0
1089 2 8.49817 31.6282 0
1090 1 42.987 34.469 0
1091 2 27.6913 17.8081 0
1092 1 63.1328 53.5978 0
1093 1 69.1628 32.8976 0
1094 2 43.5608 55.2457 0
1095 1 25.3734 71.1453 0
1096 2 48.2286 18.5439 0
1097 1 76.2489 17.7015 0
1098 1 62.6942 43.7314 0
1099 1 31.1574 4.9978 0
1100 1 68.3638 1.82673 0
1101 1 74.9209 11.8814 0
1102 1 26.0836 74.8435 0
1103 1 51.3648 71.0098 0
1104 1 47.1727 57.9763 0
1105 1 48.2873 40.1103 0
1106 1 16.4761 71.3893 0
1107 2 45.2567 62.2722 0
1108 1 55.5187 31.2796 0
1109 1 72.7558 24.8442 0
1110 2 14.8682 11.8483 0
1111 1 2.61809 56.925 0
1112 1 76.1505 18.721 0
1113 2 75.4963 7.73506 0
1114 2 14.1597 53.5066 0
1115 2 33.005 49.4509 0
1116 1 77.1932 64.7599 0
1117 1 66.9636 56.4147 0
1118 1 12.4063 75.4073 0
1119 2 11.3023 64.2831 0
1120 1 41.4152 58.079 0
1121 2 21.1487 64.267 0
1122 1 32.0209 32.567 0
1123 2 22.9996 51.8962 0
1124 1 52.7819 61.8336 0
1125 2 14.7374 4.38336 0
1126 2 15.4933 20.1849 0
1127 1 74.6637 24.0247 0
1128 1 67.389 52.133 0
1129 1 60.9397 39.5811 0
1130 1 30.5231 47.2921 0
1131 1 62.4903 15.2897 0
1132 2 75.8771 63.66 0
1133 2 56.0865 22.4291 0
1134 2 20.9069 72.1235 0
1135 1 0.821014 68.5558 0
1136 2 51.2179 26.8655 0
1137 1 51.0428 61.4301 0
1138 1 30.3229 13.6651 0
1139 2 57.5931 52.862 0
1140 2 9.13296 22.9221 0
1141 1 74.919 65.6765 0
1142 1 26.9703 52.3829 0
1143 1 48.1964 44.7969 0
1144 2 60.8645 16.3549 0
1145 1 38.05 62.627 0
1146 1 15.5214 18.8732 0
1147 1 28.2836 25.6218 0
1148 1 10.8677 36.6801 0
1149 1 57.5044 29.3253 0
1150 2 65.4122 61.1506 0
1151 1 22.0758 3.93288 0
1152 1 59.8882 52.0002 0
1153 1 71.6814 29.4864 0
1154 1 13.8912 4.63912 0
1155 2 60.2594 20.2305 0
1156 1 44.5681 32.2163 0
1157 1 12.3681 18.2107 0
1158 2 58.3742 47.937 0
1159 2 5.47806 70.4837 0
1160 1 32.9023 7.7541 0
1161 2 44.0124 56.599 0
1162 1 15.8781 9.91713 0
1163 2 13.3041 73.0608 0
1164 1 24.0105 58.82 0
1165 1 20.8653 45.5618 0
1166 2 14.9664 50.6924 0
1167 1 28.1214 20.3697 0
1168 1 56.3765 64.6527 0
1169 1 19.4932 66.8494 0
1170 2 6.38056 33.6745 0
1171 1 48.5707 33.8565 0
1172 1 22.9157 6.77811 0
1173 1 51.7631 63.9847 0
1174 1 38.8586 29.3216 0
1175 2 62.6014 44.6812 0
1176 1 68.3387 36.4509 0
1177 1 48.5368 69.9525 0
1178 2 61.0995 47.6912 0
1179 1 72.4588 32.6647 0
1180 1 52.0745 17.8761 0
1181 1 54.2678 22.8877 0
1182 1 61.0084 74.3324 0
1183 2 43.0739 73.3755 0
1184 2 28.1539 21.9967 0
1185 1 17.4978 63.2837 0
1186 1 49.0206 49.4415 0
1187 1 73.865 72.2186 0
1188 2 4.81466 37.6547 0
1189 1 60.7135 65.2817 0
1190 1 28.351 51.4988 0
1191 2 72.211 4.91084 0
1192 1 24.5981 47.1026 0
1193 1 47.6065 17.9387 0
1194 2 16.5846 16.1124 0
1195 1 74.221 48.8689 0
1196 1 21.9132 49.8821 0
1197 1 35.6759 38.9192 0
1198 1 62.3933 76.4982 0
1199 2 57.8378 62.4591 0
1200 1 26.9342 8.89568 0
1201 1 2.87391 73.2081 0
1202 1 5.7945 48.8178 0
1203 2 47.524 12.3525 0
1204 1 57.5977 56.5945 0
1205 1 66.7282 50.3568 0
1206 1 52.1297 5.07757 0
1207 1 31.7869 62.797 0
1208 1 75.3671 58.0588 0
1209 2 65.387 59.7206 0
1210 1 69.8028 31.9691 0
1211 2 24.7777 35.5219 0
1212 1 33.7824 36.314 0
1213 1 61.2194 68.9732 0
1214 1 61.6059 23.7107 0
1215 1 11.6709 72.6823 0
1216 1 11.1737 49.4731 0
1217 2 67.5216 2.06033 0
1218 2 61.5876 20.913 0
1219 1 30.2417 15.4303 0
1220 1 61.9077 17.9624 0
1221 1 61.722 54.8639 0
1222 2 66.2615 74.4232 0
1223 1 42.4479 48.0743 0
1224 1 0.73675 34.1438 0
1225 1 2.90801 25.7367 0
1226 2 65.8513 64.8683 0
1227 1 41.5306 57.0356 0
1228 1 76.1499 70.7335 0
1229 2 47.8965 9.31196 0
1230 1 25.6183 49.8533 0
1231 2 52.9981 18.0481 0
1232 1 67.8 38.0779 0
1233 1 38.5522 58.5576 0
1234 1 1.68113 67.9285 0
1235 1 18.1807 46.1049 0
1236 1 52.4437 63.1052 0
1237 1 37.9479 20.6578 0
1238 1 24.7046 7.19193 0
1239 1 12.9433 22.7478 0
1240 1 24.3423 63.0497 0
1241 1 76.243 62.8469 0