ITEM: TIMESTEP
0
ITEM: NUMBER OF ATOMS
7200
ITEM: BOX BOUNDS xy xz yz pp pp pp
0.0000000000000000e+00 7.7459666924100006e+01 0.0000000000000000e+00
0.0000000000000000e+00 7.7459666924100006e+01 0.0000000000000000e+00
-1.2909944490000000e-01 1.2909944490000000e-01 0.0000000000000000e+00
ITEM: ATOMS id type x y z
1 1 16.4121 18.0995 0
2 1 12.4709 71.165 0
3 1 2.54887 6.44749 0
4 1 29.8009 7.48706 0
5 1 24.7987 62.234 0
6 1 60.1791 31.2513 0
7 2 73.7152 8.1598 0
8 2 57.4665 46.2258 0
9 1 33.7256 62.8021 0
10 2 31.0908 10.4603 0
11 2 26.8078 60.0904 0
12 1 52.4369 13.1373 0
13 2 36.7492 12.1759 0
14 1 42.0554 68.776 0
15 1 26.6959 32.3359 0
16 1 20.677 23.8403 0
17 1 24.6546 44.2391 0
18 1 36.0117 12.5099 0
19 1 28.5531 65.7653 0
20 2 44.8762 66.7901 0
21 1 18.8633 72.3982 0
22 1 58.9245 25.9845 0
23 1 66.3203 46.7411 0
24 1 47.0102 74.7332 0
25 1 71.4149 74.8549 0
26 1 25.1493 63.2828 0
27 2 25.263 64.1037 0
28 1 40.7037 56.0863 0
29 2 7.28735 47.8775 0
30 2 35.4325 39.7656 0
31 1 11.4938 60.5865 0
32 1 61.2567 29.4309 0
33 1 67.4713 43.0575 0
34 2 61.5225 0.887193 0
35 1 0.409685 63.4978 0
36 1 24.7054 57.9833 0
37 1 22.854 57.3878 0
38 1 58.3899 18.7386 0
39 1 18.4639 74.1897 0
40 2 19.1417 61.7629 0
41 2 16.4516 75.694 0
42 1 13.9428 7.28518 0
43 1 11.1417 8.72007 0
44 1 17.2797 72.7021 0
45 1 7.40123 33.3418 0
46 1 57.6029 59.6495 0
47 1 70.135 50.5857 0
48 1 40.6785 55.0696 0
49 2 68.7361 73.4207 0
50 1 24.3229 63.9927 0
51 1 67.5667 26.9694 0
52 2 46.0818 27.2182 0
53 1 67.3176 18.1131 0
54 1 45.9875 26.2244 0
55 1 6.35203 2.48485 0
56 1 51.8103 27.5997 0
57 1 74.0548 41.4847 0
58 1 5.22079 73.6202 0
59 1 20.6688 68.979 0
60 1 26.2487 10.1542 0
61 1 22.9036 59.1174 0
62 1 40.1266 37.4017 0
63 1 51.1305 9.30991 0
64 1 57.0966 37.4671 0
65 1 67.9308 67.1526 0
66 2 64.763 4.74396 0
67 2 46.9042 34.8204 0
68 2 16.2444 21.6665 0
69 1 65.2483 40.678 0
70 1 11.1791 34.9958 0
71 2 10.3992 53.6667 0
72 1 73.9585 5.23141 0
73 1 10.3819 66.0745 0
74 2 30.889 32.076 0
75 1 60.4424 54.9776 0
76 1 19.204 56.2761 0
77 1 24.2367 11.277 0
78 1 76.1944 76.5653 0
79 1 62.5093 62.1496 0
80 1 41.9238 17.818 0
81 1 53.0541 56.9311 0
82 2 47.6607 20.2159 0
83 1 11.9014 34.2136 0
84 1 40.3293 34.1543 0
85 1 32.5121 24.148 0
86 2 40.3395 62.5919 0
87 1 69.9289 36.7455 0
88 1 18.0589 51.57 0
89 1 30.898 18.4939 0
90 1 34.0033 50.8793 0
91 2 52.3462 50.5781 0
92 2 42.6566 45.563 0
93 1 34.6455 34.2488 0
94 1 27.9585 64.1236 0
95 2 36.2711 51.4727 0
96 1 60.9201 76.2224 0
97 1 46.0559 45.7645 0
98 2 3.88092 55.9331 0
99 1 49.6573 48.0516 0
100 2 48.3078 28.8134 0
101 1 48.1738 47.2741 0
102 1 74.2049 22.3914 0
103 1 52.4769 66.554 0
104 1 23.3345 56.3551 0
105 2 41.0595 1.05078 0
106 2 42.4307 31.8995 0
107 1 15.0071 32.5436 0
108 1 14.0518 4.09549 0
109 1 34.1478 29.9666 0
110 2 64.4078 24.5582 0
111 1 66.7242 33.7685 0
112 1 26.1941 74.575 0
113 2 4.9063 53.4466 0
114 2 11.252 30.7478 0
115 2 38.1153 19.3997 0
116 2 71.5725 49.6563 0
117 1 18.2897 53.1659 0
118 2 60.8201 23.9897 0
119 1 61.3524 73.9917 0
120 2 1.60908 51.3789 0
121 1 4.97042 5.04605 0
122 1 28.3698 40.8623 0
123 2 5.01748 12.7813 0
124 1 45.4636 64.2165 0
125 1 37.3181 25.7299 0
126 1 56.0354 43.2613 0
127 1 7.33174 57.7239 0
128 1 15.9006 17.2511 0
129 1 16.9956 54.0633 0
130 1 75.101 65.1011 0
131 1 52.8489 27.1205 0
132 2 30.7347 51.103 0
133 2 71.455 6.26885 0
134 1 44.843 39.7211 0
135 1 41.3387 26.3053 0
136 2 50.7706 45.8057 0
137 1 59.7799 62.0336 0
138 2 3.23927 53.3476 0
139 1 0.0475225 14.8992 0
140 1 7.4347 20.0469 0
141 2 42.6979 56.2185 0
142 1 21.9116 14.9976 0
143 2 38.583 61.8257 0
144 2 41.8207 72.7764 0
145 2 12.0178 55.3484 0
146 1 60.2043 11.7897 0
147 1 32.8164 42.7283 0
148 1 48.0482 49.5399 0
149 2 68.0634 53.1479 0
150 1 25.6753 75.4714 0
151 2 34.1445 3.74434 0
152 1 46.7414 58.5265 0
153 2 16.4456 58.7139 0
154 2 21.7558 70.5225 0
155 1 72.6197 45.3963 0
156 1 25.7943 0.738639 0
157 1 44.6449 64.8983 0
158 1 63.6599 66.2774 0
159 2 13.686 40.0787 0
160 1 35.2674 18.2309 0
161 1 11.8738 66.9082 0
162 2 0.012234 22.8306 0
163 1 42.359 29.1535 0
164 1 63.6076 16.7429 0
165 1 7.45778 24.4307 0
166 1 6.08194 42.2603 0
167 1 33.732 74.157 0
168 1 37.543 67.912 0
169 1 56.9417 20.0218 0
170 1 57.4792 6.51134 0
171 2 42.6427 60.9716 0
172 2 33.9684 57.7535 0
173 2 40.5514 16.8186 0
174 2 30.0561 55.681 0
175 2 27.7126 26.9284 0
176 1 38.3049 24.7437 0
177 1 26.0997 63.6601 0
178 1 49.0771 66.6987 0
179 1 70.5113 18.6968 0
180 2 23.5761 32.5224 0
181 1 52.1501 17.9092 0
182 1 53.4426 71.8502 0
183 2 14.631 40.9897 0
184 1 7.83679 74.0412 0
185 2 6.02736 30.6706 0
186 1 57.2309 21.2162 0
187 1 44.2724 41.6889 0
188 1 63.9452 51.2403 0
189 2 49.5208 44.5191 0
190 1 22.1011 69.7217 0
191 1 59.2848 75.9933 0
192 1 67.6962 15.5354 0
193 2 9.35681 46.0649 0
194 2 68.5324 66.3763 0
195 1 5.56217 7.83402 0
196 2 52.1522 40.1257 0
197 2 24.6363 8.00741 0
198 1 13.1794 60.4896 0
199 2 60.3845 65.0615 0
200 1 55.4564 40.7752 0
201 2 33.3891 0.551213 0
202 2 67.2135 66.6268 0
203 1 40.6825 1.87577 0
204 1 32.1246 12.4219 0
205 1 68.7419 12.8365 0
206 2 34.6248 35.8991 0
207 2 10.6776 0.896062 0
208 1 34.7417 20.1844 0
209 1 13.8556 11.811 0
210 2 11.5579 21.7756 0
211 1 2.08192 8.03963 0
212 2 35.3569 2.57006 0
213 2 66.6925 12.9078 0
214 1 72.9264 62.2921 0
215 2 74.5579 24.8849 0
216 1 6.98785 7.05705 0
217 1 51.8264 41.8868 0
218 2 62.2973 50.3597 0
219 2 3.86481 39.7375 0
220 2 46.5933 61.2549 0
221 1 22.4912 40.8393 0
222 1 50.6994 13.8271 0
223 2 24.7918 75.4961 0
224 2 23.433 74.2523 0
225 1 39.1426 23.3674 0
226 2 64.8062 54.8484 0
227 2 11.603 16.5067 0
228 1 25.2995 13.0194 0
229 1 3.96766 23.0987 0
230 1 31.94 76.1501 0
231 1 12.8576 47.9365 0
232 1 48.1397 15.7749 0
233 1 27.1801 24.3917 0
234 1 66.3459 5.96543 0
235 1 53.8305 53.0112 0
236 2 20.2384 69.7777 0
237 1 69.7012 58.5944 0
238 2 5.55036 26.4468 0
239 1 44.0642 5.9162 0
240 2 66.4899 53.749 0
241 1 59.2676 57.3929 0
242 1 15.168 31.4406 0
243 1 10.2505 55.538 0
244 1 58.7293 62.115 0
245 1 12.6027 41.5409 0
246 1 72.8592 34.1817 0
247 1 64.7759 55.7833 0
248 1 6.24636 76.2243 0
249 2 49.5334 39.9541 0
250 1 35.7682 19.9001 0
251 2 55.4181 42.6191 0
252 2 58.3468 31.8956 0
253 1 28.618 26.4422 0
254 1 60.7835 17.2982 0
255 1 0.189041 42.4949 0
256 1 34.8844 3.28776 0
257 1 14.4567 72.4558 0
258 1 23.1953 48.2987 0
259 1 61.877 63.7357 0
260 2 35.1564 48.3577 0
261 2 23.8083 60.3121 0
262 1 34.5814 32.7866 0
263 2 9.5782 33.8945 0
264 2 1.84329 50.4244 0
265 1 71.9367 47.8583 0
266 1 30.827 50.2139 0
267 2 66.7367 32.9064 0
268 2 67.3756 54.2045 0
269 1 53.9969 25.3526 0
270 2 1.00383 64.1364 0
271 2 20.9643 38.6051 0
272 2 42.4648 20.5343 0
273 1 19.9891 77.3082 0
274 1 28.4799 62.4747 0
275 1 3.72333 59.9761 0
276 1 75.8685 22.756 0
277 2 21.1458 58.1929 0
278 1 13.1066 18.7406 0
279 1 3.36429 51.5471 0
280 1 21.5181 35.6388 0
281 1 39.1732 36.9303 0
282 2 3.4773 22.3437 0
283 1 2.16285 62.717 0
284 2 48.47 39.0063 0
285 1 73.8545 40.4856 0
286 1 29.1888 47.8309 0
287 1 20.9066 15.3589 0
288 2 69.4672 0.244091 0
289 2 32.8584 41.041 0
290 2 4.78933 14.2334 0
291 1 21.4308 30.3626 0
292 1 39.5705 60.4405 0
293 1 49.0916 9.7146 0
294 1 40.1749 71.7168 0
295 1 70.6627 2.88191 0
296 2 9.18636 20.4876 0
297 1 48.6238 50.4116 0
298 1 73.3395 30.1804 0
299 2 58.4267 33.3528 0
300 1 45.9413 44.2116 0
301 1 5.22838 24.0621 0
302 1 61.8902 31.5737 0
303 1 10.5181 32.5259 0
304 1 52.1942 68.0888 0
305 2 56.5934 72.0177 0
306 1 59.148 52.2216 0
307 2 66.0309 34.1934 0
308 1 36.2903 4.84028 0
309 2 16.7941 26.9459 0
310 2 1.27415 17.6045 0
311 1 23.0995 52.6282 0
312 1 0.114685 67.5904 0
313 1 75.7158 9.39718 0
314 1 55.7871 49.9688 0
315 2 62.3305 45.6724 0
316 2 24.6967 71.2236 0
317 1 50.0179 7.26355 0
318 2 76.8734 42.0736 0
319 1 39.9566 21.0464 0
320 1 22.5156 68.809 0
321 1 44.9446 73.7689 0
322 2 4.33476 4.45932 0
323 2 18.4813 69.3408 0
324 1 73.5889 51.9296 0
325 1 47.3365 11.1246 0
326 1 76.1404 59.9172 0
327 1 45.8146 54.4068 0
328 1 3.03533 36.0139 0
329 1 46.9159 21.0321 0
330 2 58.8238 34.6809 0
331 2 64.2615 0.982791 0
332 1 61.2417 34.1108 0
333 1 37.2923 21.1638 0
334 1 20.0648 42.5519 0
335 1 16.3338 33.809 0
336 2 68.0713 2.63343 0
337 1 37.0087 27.5726 0
338 2 15.8608 68.0894 0
339 1 41.9377 56.608 0
340 1 21.5908 51.8047 0
341 2 4.31945 45.3738 0
342 1 68.7205 6.67949 0
343 2 56.9503 63.8597 0
344 2 23.7598 52.108 0
345 1 14.3592 22.6855 0
346 1 21.8291 7.47231 0
347 1 40.377 57.3643 0
348 1 43.9339 19.479 0
349 1 38.6845 19.9727 0
350 1 40.1218 26.9921 0
351 1 20.7652 55.8935 0
352 1 47.0066 35.7222 0
353 1 11.7487 27.0451 0
354 2 34.2616 27.0679 0
355 2 61.9355 32.4151 0
356 2 10.6667 8.00082 0
357 1 62.1232 71.3607 0
358 1 29.8 9.18679 0
359 1 44.579 10.9853 0
360 2 48.1142 22.6442 0
361 2 48.0797 57.1341 0
362 1 17.9206 68.7043 0
363 2 23.28 66.7783 0
364 1 18.2996 75.412 0
365 2 71.5837 66.1196 0
366 1 26.3727 56.7042 0
367 2 30.9994 26.077 0
368 2 39.4284 40.82 0
369 2 61.3837 67.4478 0
370 1 3.39981 20.327 0
371 1 35.0352 60.7011 0
372 2 36.2016 6.59899 0
373 1 16.0971 36.4178 0
374 2 53.0682 38.6332 0
375 1 56.3341 52.5583 0
376 2 70.0614 39.3247 0
377 2 68.0597 49.7094 0
378 1 14.4466 3.08719 0
379 1 26.0008 21.3617 0
380 1 14.7805 51.8502 0
381 1 24.2311 24.1157 0
382 1 27.7097 35.6428 0
383 1 20.1142 8.63802 0
384 1 38.7345 57.7067 0
385 1 36.7498 14.0414 0
386 1 50.942 47.7453 0
387 1 59.3086 0.227534 0
388 2 58.4072 54.3718 0
389 1 34.3857 56.9895 0
390 1 38.6402 29.8472 0
391 2 71.1543 23.9316 0
392 2 34.6517 21.0854 0
393 2 44.6087 59.4278 0
394 1 76.1016 73.6416 0
395 1 53.4662 15.3945 0
396 1 3.64807 21.4825 0
397 1 50.8821 15.5449 0
398 1 39.2953 72.2496 0
399 1 68.8695 23.532 0
400 1 48.7894 73.5604 0
401 1 59.3989 3.95029 0
402 2 57.1577 3.95191 0
403 1 39.2757 48.8472 0
404 1 65.6631 61.5529 0
405 2 61.0086 63.5072 0
406 1 33.2651 12.8099 0
407 2 53.2043 3.4005 0
408 1 74.451 30.2316 0
409 1 9.56125 72.0039 0
410 2 77.3693 16.6296 0
411 2 63.8183 29.5264 0
412 1 66.5628 38.0362 0
413 1 4.68374 33.2076 0
414 1 77.1122 53.6382 0
415 1 17.5792 45.324 0
416 2 75.9237 65.4686 0
417 2 76.003 21.7861 0
418 1 49.852 23.4739 0
419 2 55.3786 49.1899 0
420 2 8.15722 66.0644 0
421 1 63.7788 26.4631 0
422 1 69.6861 75.6431 0
423 1 9.71793 0.55781 0
424 1 67.2794 13.6078 0
425 1 49.359 56.0848 0
426 1 56.7464 3.16704 0
427 2 34.6195 7.44723 0
428 1 49.4236 60.5826 0
429 1 57.4144 69.3276 0
430 1 28.8895 38.0543 0
431 1 13.949 15.1127 0
432 1 60.168 56.7439 0
433 1 20.2321 66.2582 0
434 1 0.942393 35.6454 0
435 1 61.0581 26.0385 0
436 2 63.7007 44.5829 0
437 2 48.9332 49.5755 0
438 1 45.5244 50.1252 0
439 2 56.5286 6.73407 0
440 1 43.224 32.2441 0
441 2 76.7806 6.2776 0
442 1 8.51972 35.6706 0
443 1 57.812 9.79093 0
444 1 74.141 71.5797 0
445 2 57.6699 64.5486 0
446 1 63.4124 52.6544 0
447 1 15.1043 68.5699 0
448 1 56.813 46.818 0
449 1 36.8183 65.0176 0
450 2 43.3728 49.0371 0
451 2 7.77424 54.9061 0
452 1 58.9837 19.8323 0
453 1 27.4353 1.09384 0
454 2 60.9111 40.7798 0
455 2 23.7002 1.13294 0
456 1 12.7082 51.1106 0
457 2 34.0466 9.04084 0
458 1 27.2044 74.7217 0
459 2 5.93592 51.2308 0
460 1 1.86109 1.72269 0
461 2 32.3768 27.0547 0
462 1 62.0674 15.9363 0
463 1 1.58691 65.9373 0
464 1 2.71412 45.2238 0
465 2 29.2112 31.9844 0
466 1 21.8 12.9408 0
467 2 0.690757 6.89978 0
468 1 21.44 36.9136 0
469 1 6.39345 75.0893 0
470 1 74.8553 13.414 0
471 2 66.859 46.0224 0
472 1 17.1819 47.8058 0
473 1 45.2168 72.6736 0
474 1 30.7565 64.1425 0
475 1 19.9597 73.0908 0
476 2 50.7362 23.3384 0
477 1 55.5117 16.4051 0
478 2 13.2816 64.8679 0
479 1 24.8215 20.7372 0
480 1 28.1787 24.6621 0
481 1 15.677 13.9755 0
482 1 14.547 23.9757 0
483 2 70.0796 8.25781 0
484 1 14.4447 45.6138 0
485 1 14.7715 60.5931 0
486 1 9.18795 8.85055 0
487 2 63.1754 67.0423 0
488 1 35.7936 73.7654 0
489 1 56.503 18.3371 0
490 1 34.1943 26.2494 0
491 1 29.5248 45.1576 0
492 2 61.5626 76.8408 0
493 1 68.9378 14.0042 0
494 1 67.3321 27.9584 0
495 2 20.1525 59.1531 0
496 2 47.7541 39.6595 0
497 2 37.1334 5.1109 0
498 1 31.0704 36.4357 0
499 1 26.5342 1.50469 0
500 1 73.0801 77.2684 0
501 2 41.9201 50.8027 0
502 1 32.1649 54.9458 0
503 1 49.0121 10.6951 0
504 1 38.8723 35.212 0
505 2 22.3952 1.57687 0
506 2 9.6992 68.8781 0
507 1 48.071 26.5901 0
508 1 9.69125 45.2517 0
509 1 27.4763 20.8034 0
510 1 64.6513 35.2428 0
511 1 62.1043 21.4187 0
512 1 53.4348 65.1813 0
513 1 19.0597 40.748 0
514 1 22.6015 61.9892 0
515 2 49.3636 6.69445 0
516 2 76.8091 44.8531 0
517 2 1.22086 52.568 0
518 2 23.9965 43.7947 0
519 2 32.9025 63.1097 0
520 1 1.16464 41.0302 0
521 1 57.9221 20.4431 0
522 2 17.609 67.8444 0
523 1 72.1074 5.57651 0
524 1 59.4111 25.0162 0
525 1 27.5301 73.4411 0
526 2 5.46544 33.3194 0
527 1 50.4098 18.7782 0
528 2 69.9883 66.8783 0
529 2 41.8245 58.4458 0
530 1 7.48951 66.823 0
531 2 76.6461 62.2129 0
532 2 28.4533 64.8183 0
533 1 75.0199 75.1695 0
534 1 22.2862 31.1206 0
535 1 20.9751 21.0268 0
536 1 19.5049 63.5596 0
537 1 26.5196 50.1881 0
538 2 16.4927 29.6458 0
539 2 26.5758 75.3387 0
540 1 55.9212 46.2602 0
541 2 35.4584 17.3907 0
542 1 54.317 63.4066 0
543 2 74.5678 56.1844 0
544 2 54.7848 6.35971 0
545 1 35.3063 38.536 0
546 1 41.0612 7.99003 0
547 1 9.96136 13.1341 0
548 2 22.6552 10.6197 0
549 2 77.2444 28.8442 0
550 2 4.55919 41.0611 0
551 1 38.5361 11.9771 0
552 2 69.9316 21.7818 0
553 2 22.4437 47.7267 0
554 1 59.6726 63.6789 0
555 1 46.6801 54.8689 0
556 1 69.1022 67.028 0
557 1 47.0912 49.8311 0
558 1 64.2112 63.1915 0
559 1 72.0074 34.8008 0
560 2 23.3868 53.4502 0
561 1 66.904 73.2409 0
562 2 2.10238 14.9468 0
563 2 41.7502 45.0816 0
564 1 50.8214 62.7148 0
565 2 18.5461 3.92285 0
566 2 15.818 33.1239 0
567 1 62.2844 46.7087 0
568 2 36.3666 65.7143 0
569 2 22.181 18.4729 0
570 1 71.7581 36.6291 0
571 1 75.0657 2.95238 0
572 2 6.55697 62.5823 0
573 2 68.4271 29.4285 0
574 1 5.56901 59.4683 0
575 1 28.289 11.6755 0
576 1 19.483 59.8796 0
577 1 40.5091 43.584 0
578 2 63.3128 41.0972 0
579 2 45.5973 69.6851 0
580 1 43.7569 33.2761 0
581 1 66.9155 67.4197 0
582 2 69.169 70.9193 0
583 2 63.8915 57.2764 0
584 2 29.8096 59.23 0
585 1 57.8644 3.36799 0
586 1 51.7133 51.2277 0
587 2 21.1773 25.3744 0
588 1 50.6042 2.95285 0
589 2 55.8628 5.38526 0
590 1 16.7372 6.64314 0
591 1 55.1286 15.456 0
592 1 52.5511 70.2986 0
593 1 47.7186 8.66228 0
594 1 62.9731 57.1438 0
595 1 3.59125 75.6791 0
596 2 7.65877 6.47825 0
597 1 2.78839 47.3458 0
598 1 67.1644 5.27325 0
599 1 11.576 50.9597 0
600 1 1.29795 54.5241 0
601 2 37.0188 38.6898 0
602 1 62.3971 12.87 0
603 2 16.38 47.0924 0
604 2 64.4722 16.2969 0
605 1 53.796 48.3774 0
606 1 31.9049 66.5969 0
607 1 75.6034 4.71564 0
608 2 1.24123 40.2062 0
609 2 35.3343 70.8845 0
610 1 3.30775 56.5338 0
611 1 61.504 53.7392 0
612 1 67.6108 70.3983 0
613 1 72.0746 26.3433 0
614 2 50.4079 21.5774 0
615 1 26.7478 35.9981 0
616 1 49.7609 13.1078 0
617 1 58.808 72.3232 0
618 2 5.47046 44.0156 0
619 2 38.3449 39.4625 0
620 2 70.2969 58.0029 0
621 2 66.7653 39.981 0
622 1 72.0994 18.0608 0
623 1 34.6821 5.49092 0
624 2 13.261 56.3263 0
625 1 12.9683 6.8162 0
626 1 7.85331 23.4721 0
627 2 10.5205 22.8501 0
628 1 11.9504 62.2151 0
629 2 66.8011 15.4742 0
630 1 32.8498 69.7869 0
631 1 53.2615 44.4411 0
632 1 20.1175 2.65888 0
633 2 22.9947 71.4284 0
634 1 22.7369 54.859 0
635 2 39.2086 45.5128 0
636 2 49.7262 29.0366 0
637 1 5.64592 14.5372 0
638 1 64.5282 47.5053 0
639 1 69.1287 48.2185 0
640 1 77.0932 49.2724 0
641 1 30.7046 32.8958 0
642 1 30.051 33.728 0
643 1 35.8843 40.4781 0
644 2 12.9345 28.7938 0
645 1 50.0997 52.4181 0
646 1 50.6582 41.4459 0
647 2 25.9217 13.6898 0
648 1 70.5211 12.7506 0
649 2 12.5607 0.78525 0
650 2 41.1253 61.4859 0
651 1 62.8956 17.8419 0
652 1 13.9827 77.0518 0
653 2 25.531 15.3643 0
654 2 24.9845 11.6242 0
655 1 23.2204 51.5035 0
656 1 69.6043 55.3073 0
657 1 36.6037 46.1407 0
658 1 5.63209 12.1036 0
659 2 61.33 64.4523 0
660 1 35.2078 26.3721 0
661 1 44.3398 12.7145 0
662 1 19.8632 48.5248 0
663 1 4.93531 38.1796 0
664 1 47.9434 77.2472 0
665 2 46.9776 3.76683 0
666 2 21.5935 49.3552 0
667 1 17.3541 71.5398 0
668 2 76.7946 74.8469 0
669 1 4.29891 11.116 0
670 2 33.6033 51.6309 0
671 2 49.5389 12.2718 0
672 1 21.5374 17.9648 0
673 1 13.9192 18.241 0
674 1 25.7548 41.6262 0
675 2 1.82742 72.6474 0
676 2 34.2133 68.4412 0
677 1 38.411 59.1659 0
678 1 52.5543 39.2833 0
679 1 43.0552 61.8412 0
680 1 34.4057 53.6521 0
681 1 22.3012 56.4846 0
682 1 67.1986 49.9421 0
683 1 19.0574 2.29365 0
684 1 68.0102 60.6093 0
685 2 51.1787 12.1753 0
686 1 58.5668 1.03958 0
687 1 45.9548 6.84088 0
688 2 50.1255 63.1489 0
689 1 72.3763 50.5535 0
690 1 68.6813 65.3124 0
691 1 61.5725 24.4053 0
692 2 53.2441 37.3101 0
693 1 69.332 4.95103 0
694 2 49.9654 66.8892 0
695 1 56.7722 9.49098 0
696 2 38.8288 59.9916 0
697 1 34.9138 31.7304 0
698 1 5.02689 3.89225 0
699 1 68.1969 32.5523 0
700 1 71.6368 32.8434 0
701 1 63.142 46.1232 0
702 1 56.8482 58.7613 0
703 2 67.929 64.9552 0
704 2 4.65133 72.9521 0
705 2 19.3471 9.0597 0
706 1 51.4201 39.6965 0
707 2 53.7147 26.9873 0
708 1 51.026 37.9497 0
709 1 49.6322 2.13017 0
710 2 63.7901 19.2859 0
711 1 61.2265 59.2414 0
712 2 52.5075 26.3677 0
713 2 62.0174 65.7706 0
714 2 76.7827 50.1368 0
715 1 53.36 9.83025 0
716 1 9.99879 23.5781 0
717 1 11.6653 68.572 0
718 1 7.3714 70.6279 0
719 1 56.5768 38.4558 0
720 2 34.8466 47.3411 0
721 2 68.5134 38.1068 0
722 1 39.2611 8.43492 0
723 2 61.7555 6.48118 0
724 2 24.211 3.90939 0
725 1 62.8248 25.9473 0
726 1 14.6215 28.7328 0
727 2 24.4779 13.1484 0
728 1 67.5416 47.9079 0
729 2 8.26492 74.7972 0
730 1 18.5157 26.5358 0
731 2 22.5075 30.3233 0
732 1 29.021 56.6905 0
733 1 32.3716 28.6941 0
734 2 60.9564 36.0262 0
735 1 50.4556 68.5233 0
736 1 37.3946 34.0141 0
737 2 72.1636 35.6608 0
738 1 25.6864 31.9542 0
739 1 26.827 41.6592 0
740 1 48.9781 40.9309 0
741 2 50.1072 47.1701 0
742 1 60.8552 39.8786 0
743 1 24.5923 69.2231 0
744 2 4.97848 31.6256 0
745 1 2.42629 73.2934 0
746 1 43.318 14.0913 0
747 1 29.2206 69.3383 0
748 2 43.8623 56.981 0
749 2 17.9497 27.2644 0
750 1 59.2167 31.6307 0
751 1 59.3199 42.7636 0
752 2 74.0703 57.7205 0
753 1 53.3235 36.4158 0
754 2 17.318 24.5638 0
755 1 19.2474 53.3384 0
756 2 45.3777 74.5013 0
757 1 46.8404 12.7539 0
758 1 2.94316 14.2689 0
759 1 49.963 42.3302 0
760 1 0.455872 15.9818 0
761 1 75.7048 1.18554 0
762 1 8.93331 63.5463 0
763 2 74.6174 14.271 0
764 1 5.11721 51.581 0
765 2 56.633 57.7966 0
766 1 72.1481 14.8409 0
767 1 7.50258 76.3787 0
768 1 0.0465868 10.58 0
769 1 54.9438 44.4101 0
770 2 61.3557 72.0923 0
771 1 18.6533 45.3158 0
772 1 43.5001 45.4436 0
773 1 47.1003 45.4727 0
774 2 43.2261 28.7019 0
775 1 73.8504 31.7939 0
776 2 37.03 43.6866 0
777 1 4.19727 47.2595 0
778 2 3.89427 67.0526 0
779 1 44.4153 14.4871 0
780 1 21.3445 6.49935 0
781 1 44.4285 26.3777 0
782 1 61.3215 57.5894 0
783 1 54.8857 39.8762 0
784 1 71.3661 55.0289 0
785 2 3.87948 15.2861 0
786 1 66.7782 55.8458 0
787 1 20.0939 61.607 0
788 1 42.7164 53.9989 0
789 1 75.929 72.5901 0
790 1 50.0588 70.5893 0
791 1 60.4146 3.81764 0
792 1 9.61818 39.5056 0
793 1 16.9376 19.6302 0
794 2 7.42351 4.99154 0
795 2 8.18802 3.6759 0
796 2 63.1026 76.0322 0
797 1 52.8778 51.282 0
798 1 42.4146 26.4434 0
799 1 30.6329 72.8984 0
800 1 23.3555 65.841 0
801 2 8.97343 36.5733 0
802 2 7.68967 45.3795 0
803 2 25.874 4.08147 0
804 2 53.5538 41.0335 0
805 1 20.6942 1.72384 0
806 1 59.7994 65.799 0
807 2 18.5636 65.1275 0
808 1 44.2475 36.2119 0
809 2 18.6858 63.2083 0
810 1 62.7764 4.58731 0
811 1 37.7758 58.2451 0
812 2 74.3903 53.4393 0
813 2 52.867 47.9353 0
814 1 63.499 36.5283 0
815 2 44.8473 17.9853 0
816 1 29.372 49.4709 0
817 1 52.5508 73.6104 0
818 2 43.6435 10.952 0
819 2 49.3798 52.9261 0
820 1 54.0003 74.3176 0
821 1 21.3659 66.3146 0
822 1 45.1374 75.8011 0
823 1 3.03917 62.1036 0
824 2 34.2146 33.537 0
825 1 35.3025 33.4783 0
826 1 27.2603 6.36016 0
827 1 15.296 39.2484 0
828 1 9.66869 58.582 0
829 1 74.2852 36.9158 0
830 2 40.9202 71.3773 0
831 2 52.3613 1.04316 0
832 1 73.904 0.419136 0
833 1 27.5995 65.1974 0
834 2 40.4216 2.77381 0
835 1 54.2656 7.96512 0
836 1 67.6524 19.1197 0
837 1 55.9125 32.3356 0
838 1 46.2576 49.3037 0
839 1 10.1687 69.5707 0
840 2 4.95395 50.7284 0
841 1 28.0354 56.1242 0
842 2 22.867 58.2507 0
843 1 8.93878 49.321 0
844 1 74.1673 24.0955 0
845 2 38.5083 0.642642 0
846 1 47.3159 43.1845 0
847 1 77.3689 51.962 0
848 2 64.9748 51.3915 0
849 1 75.6507 11.5993 0
850 1 66.8268 25.3815 0
851 1 35.6326 25.3453 0
852 1 0.331658 77.2239 0
853 1 42.9497 63.5965 0
854 1 32.9625 65.111 0
855 1 53.0313 28.9344 0
856 2 18.8117 33.085 0
857 1 59.9524 12.9617 0
858 2 29.2294 33.3799 0
859 1 13.4795 75.0001 0
860 2 60.6534 48.6421 0
861 2 75.1801 49.7734 0
862 2 4.10162 60.7487 0
863 1 53.8395 22.5969 0
864 1 63.655 56.3545 0
865 2 67.5898 72.67 0
866 1 64.2594 19.9471 0
867 2 32.2319 20.1805 0
868 1 43.9243 55.1706 0
869 1 0.626931 24.7045 0
870 1 9.00101 52.036 0
871 1 70.4007 20.2402 0
872 1 41.6408 40.7115 0
873 1 46.34 68.9294 0
874 1 7.53318 72.3195 0
875 1 43.7759 58.6045 0
876 2 45.242 2.6919 0
877 1 4.92414 61.038 0
878 2 23.8116 20.0574 0
879 1 70.6545 22.3175 0
880 2 27.2448 28.7197 0
881 2 58.114 19.6052 0
882 2 41.63 63.045 0
883 1 36.0978 16.7357 0
884 1 52.8233 47.0747 0
885 1 34.1265 0.218347 0
886 1 44.0449 46.4523 0
887 2 40.3634 41.8479 0
888 1 6.84486 10.4781 0
889 2 50.0301 32.9986 0
890 2 11.9503 23.617 0
891 1 30.6416 8.46548 0
892 1 27.759 72.4262 0
893 1 25.9998 52.863 0
894 1 1.28573 15.2021 0
895 2 47.4528 62.6271 0
896 1 26.3458 72.1904 0
897 2 43.0192 21.8781 0
898 1 29.73 50.3572 0
899 1 60.6176 68.9589 0
900 2 46.7751 13.6357 0
901 1 38.495 37.7569 0
902 1 37.2094 73.9392 0
903 1 25.0174 48.9391 0
904 2 7.20653 22.0642 0
905 1 58.7142 63.1575 0
906 1 68.8034 44.2403 0
907 1 16.3187 20.7852 0
908 1 64.0559 25.3927 0
909 1 1.52348 63.5171 0
910 2 2.92406 52.2346 0
911 2 8.98853 67.5126 0
912 2 40.3163 21.832 0
913 2 32.3554 38.9077 0
914 1 13.1005 14.4777 0
915 2 56.1397 3.83811 0
916 1 11.4601 41.6675 0
917 2 2.83599 19.7043 0
918 2 24.748 36.8763 0
919 1 21.0049 59.0288 0
920 1 9.7994 51.3641 0
921 1 76.2586 32.9035 0
922 2 53.3342 16.2907 0
923 2 13.9447 19.1609 0
924 1 50.3517 19.8332 0
925 1 64.0485 45.4092 0
926 2 47.7358 27.5013 0
927 1 66.374 66.3704 0
928 1 42.1386 59.2371 0
929 2 57.8304 41.0606 0
930 2 17.1045 18.7329 0
931 1 55.308 55.1405 0
932 1 66.4943 26.4195 0
933 1 36.6471 24.992 0
934 1 11.803 75.5846 0
935 1 10.7193 57.092 0
936 2 47.1251 68.4902 0
937 1 6.09326 3.89282 0
938 1 28.7742 1.29331 0
939 2 51.4634 48.4058 0
940 1 0.255429 44.5201 0
941 1 4.84896 15.1792 0
942 1 47.4562 21.9992 0
943 2 17.9451 10.6859 0
944 2 2.10641 49.3898 0
945 1 47.123 26.1086 0
946 1 4.19674 65.185 0
947 2 27.1238 2.16786 0
948 1 26.8393 64.3598 0
949 1 38.3666 18.5814 0
950 2 14.6402 6.72441 0
951 1 77.3817 65.7469 0
952 2 52.1339 5.73888 0
953 2 6.34371 40.3394 0
954 2 20.7203 51.934 0
955 1 24.1193 42.1755 0
956 2 72.0652 31.1409 0
957 1 57.4784 12.0092 0
958 2 25.3635 7.51384 0
959 2 3.64647 32.9092 0
960 2 33.6345 65.6883 0
961 1 45.9046 51.131 0
962 1 22.5453 21.7265 0
963 1 25.7346 14.4922 0
964 2 17.538 11.8733 0
965 2 55.3421 54.2568 0
966 1 70.9138 62.5479 0
967 1 56.5123 31.1892 0
968 1 22.8676 70.5489 0
969 1 57.2861 16.3756 0
970 2 26.5234 8.28371 0
971 1 26.5107 16.9724 0
972 1 14.6839 38.4171 0
973 1 70.2564 40.2235 0
974 2 63.7998 35.544 0
975 2 3.33019 65.474 0
976 2 37.4424 22.5613 0
977 1 40.0631 50.5187 0
978 2 77.4102 9.58254 0
979 2 39.0669 53.9434 0
980 1 1.47126 2.70393 0
981 1 64.6616 57.9308 0
982 1 14.3955 53.596 0
983 1 26.7542 13.8726 0
984 1 6.52168 65.0381 0
985 1 41.3497 12.2207 0
986 1 36.6565 53.2826 0
987 2 19.0116 28.4857 0
988 2 42.6649 30.197 0
989 2 7.73806 34.1085 0
990 2 75.4184 54.6599 0
991 2 56.8611 11.2686 0
992 1 69.4584 34.9153 0
993 2 33.9514 19.8705 0
994 2 11.2228 63.8193 0
995 1 26.6987 33.286 0
996 2 50.9362 64.5245 0
997 2 51.9703 17.0348 0
998 2 53.4203 73.7034 0
999 2 43.7113 17.6739 0
1000 2 76.7659 54.5708 0
1001 1 32.5661 71.5775 0
1002 1 28.8778 46.6353 0
1003 1 8.72364 56.5961 0
1004 1 7.70288 14.8567 0
1005 2 19.1488 21.317 0
1006 2 60.6295 55.8721 0
1007 1 20.2267 22.8616 0
1008 1 49.8178 20.8083 0
1009 1 32.6059 31.4066 0
1010 1 6.93152 47.0115 0
1011 2 11.2149 40.7777 0
1012 2 9.48965 17.5289 0
1013 2 54.1796 64.6264 0
1014 1 6.66132 11.5915 0
1015 1 66.2535 28.2422 0
1016 1 45.3022 49.1193 0
1017 2 6.10212 47.2811 0
1018 1 32.5206 46.3767 0
1019 1 48.2813 30.4578 0
1020 2 35.4871 9.90749 0
1021 2 25.1655 21.6216 0
1022 1 6.30028 70.7647 0
1023 1 39.6389 3.16251 0
1024 1 12.4043 77.4279 0
1025 1 37.5457 68.9958 0
1026 1 4.73987 52.539 0
1027 1 38.6113 71.518 0
1028 1 11.4702 37.0367 0
1029 1 46.8234 19.9254 0
1030 2 45.579 52.0888 0
1031 2 44.0275 39.9346 0
1032 1 5.14575 71.418 0
1033 1 60.4795 30.2568 0
1034 1 59.7194 24.0296 0
1035 1 73.182 27.5632 0
1036 2 68.2639 48.3536 0
1037 1 36.103 71.2732 0
1038 1 65.434 63.3189 0
1039 1 11.5762 22.6288 0
1040 2 68.5096 39.6833 0
1041 1 20.52 63.6858 0
1042 2 60.1826 57.624 0
1043 2 58.6837 64.0864 0
1044 1 75.8504 19.9238 0
1045 1 10.6264 25.2646 0
1046 1 35.3142 63.2586 0
1047 2 8.12009 49.2789 0
1048 1 45.0491 1.83113 0
1049 1 7.77505 40.896 0
1050 2 59.3981 12.1279 0
1051 1 50.3864 25.3097 0
1052 1 64.0062 49.6061 0
1053 2 33.7952 21.5835 0
1054 1 51.5471 1.24764 0
1055 2 24.5598 47.1486 0
1056 2 15.7365 43.52 0
1057 1 16.489 2.8303 0
1058 1 32.7838 74.1358 0
1059 1 6.50075 72.3713 0
1060 2 21.3323 33.9993 0
1061 1 18.1894 13.3709 0
1062 2 16.9704 37.4554 0
1063 1 70.4952 70.5677 0
1064 1 21.9672 10.2139 0
1065 2 35.7386 52.7672 0
1066 1 30.904 52.7304 0
1067 1 18.8237 10.6069 0
1068 2 36.8579 68.453 0
1069 1 74.9715 36.0194 0
1070 2 12.029 39.4853 0
1071 2 58.9713 48.5214 0
1072 2 74.4007 65.7847 0
1073 2 2.71978 16.5941 0
1074 2 28.5699 53.66 0
1075 1 75.5477 43.1045 0
1076 1 22.6067 72.2587 0
1077 1 48.1871 25.5422 0
1078 2 69.7367 23.6496 0
1079 2 39.6885 5.67714 0
1080 2 20.2117 53.3091 0
1081 2 40.2966 44.4426 0
1082 2 4.51294 16.013 0
1083 2 34.7304 11.1731 0
1084 1 45.0558 46.1561 0
1085 1 31.6201 56.8958 0
1086 1 56.5912 64.724 0
1087 1 41.7309 75.0973 0
1088 1 50.2308 64.0223 0
1089 2 0.191746 37.9873 0
1090 1 43.3311 22.6664 0
1091 2 33.2422 13.6789 0
1092 1 55.9707 65.6262 0
1093 1 66.7199 34.8317 0
1094 2 40.2516 58.9977 0
1095 1 19.3463 7.1075 0
1096 2 51.6644 20.9479 0
1097 1 72.0817 27.3408 0
1098 1 63.4345 47.1718 0
1099 1 25.9156 66.4251 0
1100 1 72.4603 71.3201 0
1101 1 73.189 23.9654 0
1102 1 23.222 1.87613 0
1103 1 47.9046 72.3197 0
1104 1 44.2791 48.8849 0
1105 1 55.6079 39.0807 0
1106 1 14.322 10.9279 0
1107 2 45.8744 68.2497 0
1108 1 59.9079 32.3446 0
1109 1 71.048 27.6752 0
1110 2 1.19112 21.8943 0
1111 1 71.7608 52.5084 0
1112 1 22.8094 15.4917 0
1113 2 0.657459 5.40357 0
1114 2 24.9847 42.026 0
1115 2 29.2607 60.3506 0
1116 1 76.0824 55.3289 0
1117 1 69.778 51.6119 0
1118 1 11.6323 2.56876 0
1119 2 11.5443 67.6901 0
1120 1 38.254 55.6485 0
1121 2 13.7379 66.2961 0
1122 1 49.4142 34.5192 0
1123 2 22.9943 49.1442 0
1124 1 47.9426 51.3744 0
1125 2 22.9387 7.97262 0
1126 2 16.9863 10.1238 0
1127 1 13.0517 12.4691 0
1128 1 66.1844 64.0671 0
1129 1 61.5481 48.1093 0
1130 1 25.3529 61.3631 0
1131 1 72.1164 23.9344 0
1132 2 0.970634 57.9015 0
1133 2 58.5581 10.7983 0
1134 2 12.143 6.90443 0
1135 1 73.8813 56.78 0
1136 2 56.0758 20.032 0
1137 1 47.4563 59.48 0
1138 1 37.3832 19.0288 0
1139 2 49.7852 41.5251 0
1140 2 3.44489 31.3861 0
1141 1 71.9481 54.0964 0
1142 1 47.2678 41.3536 0
1143 1 57.856 51.4931 0
1144 2 72.2197 12.0472 0
1145 1 33.8122 52.8104 0
1146 1 11.9301 11.249 0
1147 1 27.2796 27.7733 0
1148 1 8.40078 30.7432 0
1149 1 63.7083 28.6231 0
1150 2 59.7186 54.5173 0
1151 1 37.3504 10.0367 0
1152 1 57.2406 48.5793 0
1153 1 12.7018 29.686 0
1154 1 9.15923 7.20549 0
1155 2 70.8305 11.5855 0
1156 1 65.5067 29.7586 0
1157 1 13.3425 13.4959 0
1158 2 61.4172 51.8548 0
1159 2 68.9836 76.0489 0
1160 1 27.2933 8.02458 0
1161 2 31.629 63.9396 0
1162 1 18.2943 11.5151 0
1163 2 6.13858 7.21754 0
1164 1 31.5527 57.9727 0
1165 1 22.1409 44.333 0
1166 2 21.5105 42.2814 0
1167 1 29.9344 24.7534 0
1168 1 43.6437 69.405 0
1169 1 16.2717 68.873 0
1170 2 4.39119 30.3609 0
1171 1 55.2208 34.6544 0
1172 1 38.2246 8.10828 0
1173 1 45.757 57.9203 0
1174 1 41.5578 31.8403 0
1175 2 61.1942 54.5612 0
1176 1 67.6432 39.7695 0
1177 1 46.8861 62.0358 0
1178 2 55.0528 46.1538 0
1179 1 4.69805 39.9163 0
1180 1 54.6377 9.87109 0
1181 1 57.4135 42.1998 0
1182 1 46.1868 2.14406 0
1183 2 43.5705 57.8125 0
1184 2 29.0459 24.4906 0
1185 1 10.3939 60.2622 0
1186 1 41.9203 42.6195 0
1187 1 62.8152 65.5581 0
1188 2 6.60222 39.4228 0
1189 1 55.3096 59.9106 0
1190 1 37.2024 29.1121 0
1191 2 63.9427 10.9747 0
1192 1 25.6366 51.7183 0
1193 1 45.1866 24.0735 0
1194 2 16.7629 17.2637 0
1195 1 72.8503 60.3437 0
1196 1 22.3047 51.0852 0
1197 1 51.5042 34.2737 0
1198 1 59.6895 2.28909 0
1199 2 53.0453 65.9257 0
1200 1 39.4534 9.46512 0
1201 1 71.3677 69.9416 0
1202 1 7.65998 60.5613 0
1203 2 60.6473 13.5488 0
1204 1 54.3336 60.4889 0
1205 1 71.2656 57.945 0
1206 1 48.9904 3.59139 0
1207 1 39.7477 55.4447 0
1208 1 74.0802 50.9962 0
1209 2 67.5803 57.5608 0
1210 1 49.7004 36.2427 0
1211 2 25.2918 54.2041 0
1212 1 22.7547 28.7126 0
1213 1 60.5313 64.1795 0
1214 1 0.622903 28.5467 0
1215 1 7.00711 5.8108 0
1216 1 5.75532 50.3883 0
1217 2 56.8866 73.6744 0
1218 2 63.7185 17.5323 0
1219 1 22.782 32.1017 0
1220 1 72.2486 13.0147 0
1221 1 56.026 73.7439 0
1222 2 68.7219 61.0963 0
1223 1 52.6548 49.64 0
1224 1 74.6226 28.5667 0
1225 1 13.6222 25.5541 0
1226 2 71.121 63.3508 0
1227 1 32.1491 61.3474 0
1228 1 59.5368 64.8092 0
1229 2 53.7844 1.26457 0
1230 1 17.7717 37.3378 0
1231 2 57.5293 14.2219 0
1232 1 75.0303 44.2376 0
1233 1 28.8731 57.7017 0
1234 1 62.8977 70.6728 0
1235 1 11.9801 51.9258 0
1236 1 49.9018 66.0045 0
1237 1 36.7562 22.0835 0
1238 1 39.5833 75.3038 0
1239 1 17.2097 27.8164 0
1240 1 31.5765 77.3351 0
1241 1 13.6568 63.2079 0