ITEM: TIMESTEP
0
ITEM: NUMBER OF ATOMS
7200
ITEM: BOX BOUNDS xy xz yz pp pp pp
0.0000000000000000e+00 2.1900000000000000e+02 0.0000000000000000e+00
0.0000000000000000e+00 2.1900000000000000e+02 0.0000000000000000e+00
-3.6499999999999999e-01 3.6499999999999999e-01 0.0000000000000000e+00
ITEM: ATOMS id type x y z
1 1 42.2889 190.5 -5.55112e-17
2 2 168.037 73.582 -5.55112e-17
3 2 126.009 37.8549 -5.55112e-17
4 1 135.764 18.8573 -5.55112e-17
5 1 93.2905 67.5151 -5.55112e-17
6 1 102.706 31.9497 -5.55112e-17
7 2 89.7923 123.727 -5.55112e-17
8 2 198.291 51.2637 -5.55112e-17
9 1 74.2997 56.6647 -5.55112e-17
10 2 185.304 146.603 -5.55112e-17
11 2 76.2825 63.2249 -5.55112e-17
12 1 163.634 76.8542 -5.55112e-17
13 2 95.5911 69.5506 -5.55112e-17
14 1 215.025 217.056 -5.55112e-17
15 2 156.4 182.286 -5.55112e-17
16 2 213.582 211.357 -5.55112e-17
17 1 167.056 192.805 -5.55112e-17
18 2 210.771 173.547 -5.55112e-17
19 1 90.1664 114.047 -5.55112e-17
20 1 111.087 17.7455 -5.55112e-17
21 1 89.9611 205.552 -5.55112e-17
22 2 144.71 49.8269 -5.55112e-17
23 2 46.5597 13.6824 -5.55112e-17
24 2 5.57103 70.8525 -5.55112e-17
25 2 192.85 209.136 -5.55112e-17
26 2 100.896 45.9848 -5.55112e-17
27 1 85.87 51.745 -5.55112e-17
28 2 191.585 86.0315 -5.55112e-17
29 2 6.52981 3.17601 -5.55112e-17
30 2 207.753 178.021 -5.55112e-17
31 2 143.709 180.536 -5.55112e-17
32 1 23.8431 53.3031 -5.55112e-17
33 2 7.34926 77.5618 -5.55112e-17
34 2 169.315 211.672 -5.55112e-17
35 2 87.6878 114.942 -5.55112e-17
36 1 53.003 172.73 -5.55112e-17
37 1 183.933 140.906 -5.55112e-17
38 2 118.176 59.5508 -5.55112e-17
39 1 5.33853 82.6545 -5.55112e-17
40 2 50.2673 189.83 -5.55112e-17
41 1 186.851 131.435 -5.55112e-17
42 1 107.83 82.0177 -5.55112e-17
43 1 3.20098 57.6405 -5.55112e-17
44 1 69.422 88.5062 -5.55112e-17
45 2 161.209 115.296 -5.55112e-17
46 1 73.0802 85.8988 -5.55112e-17
47 2 42.674 6.81321 -5.55112e-17
48 2 75.7531 205.7 -5.55112e-17
49 1 142.872 151.043 -5.55112e-17
50 2 161.014 184.259 -5.55112e-17
51 1 110.276 103.92 -5.55112e-17
52 1 106.096 103.883 -5.55112e-17
53 2 212.666 41.3775 -5.55112e-17
54 1 45.0424 164.329 -5.55112e-17
55 2 207.758 148.151 -5.55112e-17
56 1 14.0895 17.7146 -5.55112e-17
57 2 214.356 147.899 -5.55112e-17
58 1 169.911 70.7753 -5.55112e-17
59 1 134.85 97.802 -5.55112e-17
60 2 165.584 91.368 -5.55112e-17
61 1 174.339 212.333 -5.55112e-17
62 1 211.114 210.529 -5.55112e-17
63 2 38.0886 100.781 -5.55112e-17
64 1 123.81 123.656 -5.55112e-17
65 2 41.6637 213.327 -5.55112e-17
66 2 148.762 170.321 -5.55112e-17
67 2 176.322 203.653 -5.55112e-17
68 1 179.182 107.611 -5.55112e-17
69 2 82.2871 70.5233 -5.55112e-17
70 1 152.997 151.257 -5.55112e-17
71 1 14.7315 110.346 -5.55112e-17
72 2 144.295 122.799 -5.55112e-17
73 2 123.949 188.143 -5.55112e-17
74 2 9.83828 161.818 -5.55112e-17
75 1 130.206 81.937 -5.55112e-17
76 2 181.013 141.387 -5.55112e-17
77 2 105.211 138.475 -5.55112e-17
78 1 8.86465 75.5475 -5.55112e-17
79 2 213.92 22.7245 -5.55112e-17
80 1 89.6042 60.0019 -5.55112e-17
81 1 181.611 8.72258 -5.55112e-17
82 1 58.5851 89.743 -5.55112e-17
83 1 66.8057 118.38 -5.55112e-17
84 2 28.6904 155.169 -5.55112e-17
85 2 57.4824 148.659 -5.55112e-17
86 2 194.992 195.287 -5.55112e-17
87 2 176.203 17.3474 -5.55112e-17
88 1 44.3456 135.905 -5.55112e-17
89 2 50.4165 142.617 -5.55112e-17
90 2 60.2616 108.067 -5.55112e-17
91 2 180.194 109.807 -5.55112e-17
92 1 63.9208 29.6878 -5.55112e-17
93 2 30.1583 21.2155 -5.55112e-17
94 2 169.951 34.9842 -5.55112e-17
95 1 19.3174 24.0268 -5.55112e-17
96 2 122.534 13.4166 -5.55112e-17
97 2 182.619 58.1619 -5.55112e-17
98 2 76.5258 210.156 -5.55112e-17
99 1 55.9793 32.1947 -5.55112e-17
100 2 213.654 173.345 -5.55112e-17
101 1 183.735 118.634 -5.55112e-17
102 1 22.3685 38.585 -5.55112e-17
103 2 216.15 26.8213 -5.55112e-17
104 2 83.5442 42.1936 -5.55112e-17
105 1 115.31 196.803 -5.55112e-17
106 1 3.01634 190.843 -5.55112e-17
107 1 217.227 148.569 -5.55112e-17
108 1 175.521 199.371 -5.55112e-17
109 2 200.286 186.602 -5.55112e-17
110 2 176.103 39.0442 -5.55112e-17
111 1 110.37 106.314 -5.55112e-17
112 2 87.4056 205.756 -5.55112e-17
113 1 51.4972 217.964 -5.55112e-17
114 1 49.6448 101.785 -5.55112e-17
115 2 95.6871 151.556 -5.55112e-17
116 2 18.8777 35.1478 -5.55112e-17
117 1 202.368 80.9216 -5.55112e-17
118 1 27.0485 194.501 -5.55112e-17
119 2 137.614 128.88 -5.55112e-17
120 2 0.159633 171.443 -5.55112e-17
121 1 208.847 103.009 -5.55112e-17
122 2 136.891 134.56 -5.55112e-17
123 2 32.2985 101.666 -5.55112e-17
124 1 40.6718 195.796 -5.55112e-17
125 1 169.205 125.215 -5.55112e-17
126 2 166.917 184.872 -5.55112e-17
127 2 46.1143 83.9241 -5.55112e-17
128 1 111.009 78.5406 -5.55112e-17
129 1 83.3302 51.2505 -5.55112e-17
130 2 136.137 172.795 -5.55112e-17
131 1 138.233 192.389 -5.55112e-17
132 1 42.0234 200.362 -5.55112e-17
133 1 46.5644 24.2853 -5.55112e-17
134 1 158.064 3.43325 -5.55112e-17
135 2 68.0169 138.408 -5.55112e-17
136 1 181.69 107.321 -5.55112e-17
137 1 206.605 208.437 -5.55112e-17
138 2 29.216 192.982 -5.55112e-17
139 1 165.853 72.1279 -5.55112e-17
140 1 112.701 34.9032 -5.55112e-17
141 1 210.624 183.1 -5.55112e-17
142 1 179.298 204.609 -5.55112e-17
143 1 98.2454 182.731 -5.55112e-17
144 1 206.432 71.1392 -5.55112e-17
145 2 198.836 74.8516 -5.55112e-17
146 1 202.251 217.355 -5.55112e-17
147 2 161.708 89.2128 -5.55112e-17
148 1 191.071 128.26 -5.55112e-17
149 1 131.211 14.0976 -5.55112e-17
150 2 112.98 198.634 -5.55112e-17
151 1 144.218 211.473 -5.55112e-17
152 1 140.107 44.2838 -5.55112e-17
153 2 173.178 166.097 -5.55112e-17
154 1 68.0469 6.22701 -5.55112e-17
155 2 99.5234 177.37 -5.55112e-17
156 2 82.7278 63.2322 -5.55112e-17
157 2 163.945 122.465 -5.55112e-17
158 2 136.466 12.2843 -5.55112e-17
159 2 45.0325 40.6842 -5.55112e-17
160 2 140.751 149.768 -5.55112e-17
161 2 199.007 1.31141 -5.55112e-17
162 1 58.7729 16.8934 -5.55112e-17
163 1 45.7508 196.827 -5.55112e-17
164 2 102.999 170.49 -5.55112e-17
165 1 119.851 204.118 -5.55112e-17
166 2 120.012 179.181 -5.55112e-17
167 1 29.2789 28.8638 -5.55112e-17
168 1 155.468 127.346 -5.55112e-17
169 2 203.489 185.941 -5.55112e-17
170 1 74.8924 138.744 -5.55112e-17
171 1 181.995 55.8294 -5.55112e-17
172 1 161.021 63.4291 -5.55112e-17
173 1 195.23 200.204 -5.55112e-17
174 2 139.81 134.085 -5.55112e-17
175 2 12.6664 83.4608 -5.55112e-17
176 1 163.436 19.7189 -5.55112e-17
177 2 39.4075 90.8833 -5.55112e-17
178 1 208.831 198.006 -5.55112e-17
179 2 21.2942 182.444 -5.55112e-17
180 1 38.6885 61.8916 -5.55112e-17
181 1 183.968 7.43977 -5.55112e-17
182 1 214.217 110.798 -5.55112e-17
183 1 44.9567 56.1863 -5.55112e-17
184 2 51.3298 152.008 -5.55112e-17
185 2 140.504 130.224 -5.55112e-17
186 2 128.162 79.5778 -5.55112e-17
187 2 5.45482 93.9674 -5.55112e-17
188 2 154.976 166.211 -5.55112e-17
189 1 105.285 67.8675 -5.55112e-17
190 1 9.78588 202.586 -5.55112e-17
191 2 121.211 55.7924 -5.55112e-17
192 2 59.3464 41.7126 -5.55112e-17
193 1 165.485 55.3429 -5.55112e-17
194 1 65.298 49.1786 -5.55112e-17
195 2 139.839 12.0663 -5.55112e-17
196 1 218.438 173.619 -5.55112e-17
197 2 173.103 105.187 -5.55112e-17
198 2 176.767 129.057 -5.55112e-17
199 2 84.5834 195.317 -5.55112e-17
200 2 44.4452 182.121 -5.55112e-17
201 2 149.147 47.2778 -5.55112e-17
202 1 200.281 164.486 -5.55112e-17
203 1 90.0619 132.718 -5.55112e-17
204 2 167.692 209.34 -5.55112e-17
205 2 65.3 55.1782 -5.55112e-17
206 2 64.5251 36.8634 -5.55112e-17
207 1 85.9516 161.468 -5.55112e-17
208 2 207.12 60.1374 -5.55112e-17
209 2 105.596 19.3376 -5.55112e-17
210 1 176.361 146.234 -5.55112e-17
211 1 202.248 188.4 -5.55112e-17
212 1 111.956 163.189 -5.55112e-17
213 1 158.18 185.171 -5.55112e-17
214 2 54.2309 95.9461 -5.55112e-17
215 1 72.3016 56.6162 -5.55112e-17
216 1 22.1869 203.595 -5.55112e-17
217 1 65.5075 86.0414 -5.55112e-17
218 2 142.12 213.045 -5.55112e-17
219 2 111.563 111.658 -5.55112e-17
220 1 71.0871 40.1648 -5.55112e-17
221 2 111.965 169.695 -5.55112e-17
222 1 87.7981 99.7193 -5.55112e-17
223 1 128.513 202.673 -5.55112e-17
224 2 100.856 158.91 -5.55112e-17
225 2 147.909 129.442 -5.55112e-17
226 1 188.541 118.054 -5.55112e-17
227 2 182.04 6.17526 -5.55112e-17
228 2 76.5871 217.262 -5.55112e-17
229 1 195.351 119.448 -5.55112e-17
230 1 51.1019 46.7193 -5.55112e-17
231 2 22.0809 193.911 -5.55112e-17
232 1 203.227 161.024 -5.55112e-17
233 2 197.509 78.549 -5.55112e-17
234 1 25.4108 9.65334 -5.55112e-17
235 1 146.643 203.138 -5.55112e-17
236 2 162.788 132.818 -5.55112e-17
237 2 93.5589 196.091 -5.55112e-17
238 2 165.244 155.144 -5.55112e-17
239 1 60.8346 87.2684 -5.55112e-17
240 1 118.095 212.814 -5.55112e-17
241 2 144.416 71.3238 -5.55112e-17
242 1 53.9487 105.266 -5.55112e-17
243 2 209.731 122.302 -5.55112e-17
244 2 144.353 172.548 -5.55112e-17
245 1 217.067 15.956 -5.55112e-17
246 2 203.06 67.7163 -5.55112e-17
247 2 13.0075 101.27 -5.55112e-17
248 1 15.1778 149.133 -5.55112e-17
249 1 154.364 131.675 -5.55112e-17
250 1 114.174 48.3904 -5.55112e-17
251 2 176.933 176.603 -5.55112e-17
252 1 17.4741 103.696 -5.55112e-17
253 2 156.873 123.118 -5.55112e-17
254 2 100.131 215.384 -5.55112e-17
255 2 105.872 38.2179 -5.55112e-17
256 1 148.632 163.445 -5.55112e-17
257 2 133.694 40.2656 -5.55112e-17
258 1 82.1234 19.2318 -5.55112e-17
259 2 137.211 161.748 -5.55112e-17
260 1 49.5424 89.9502 -5.55112e-17
261 2 176.555 61.8845 -5.55112e-17
262 2 83.4316 133.311 -5.55112e-17
263 2 205.775 126.249 -5.55112e-17
264 1 20.4507 173.48 -5.55112e-17
265 1 190.885 88.7261 -5.55112e-17
266 1 33.9017 42.1374 -5.55112e-17
267 2 30.617 115.071 -5.55112e-17
268 1 34.1067 35.0435 -5.55112e-17
269 2 146.181 158.528 -5.55112e-17
270 2 134.563 197.211 -5.55112e-17
271 2 79.079 76.7775 -5.55112e-17
272 1 181.127 191.594 -5.55112e-17
273 1 169.012 148.391 -5.55112e-17
274 1 53.9906 2.7044 -5.55112e-17
275 1 161.818 157.903 -5.55112e-17
276 1 8.1016 127.461 -5.55112e-17
277 1 215.609 109.235 -5.55112e-17
278 2 27.1549 92.8993 -5.55112e-17
279 2 125.465 98.0965 -5.55112e-17
280 1 217.452 161.857 -5.55112e-17
281 2 134.008 214.493 -5.55112e-17
282 2 115.791 179.361 -5.55112e-17
283 2 99.7819 121.889 -5.55112e-17
284 1 10.8065 146.399 -5.55112e-17
285 1 144.834 97.7511 -5.55112e-17
286 2 63.7074 84.0384 -5.55112e-17
287 2 34.8687 77.9729 -5.55112e-17
288 1 210.282 191.007 -5.55112e-17
289 2 193.768 8.86141 -5.55112e-17
290 1 212.778 138.221 -5.55112e-17
291 2 31.7266 214.643 -5.55112e-17
292 1 180.786 184.204 -5.55112e-17
293 1 152.33 146.733 -5.55112e-17
294 1 208.545 212.122 -5.55112e-17
295 2 25.423 84.3749 -5.55112e-17
296 1 92.442 35.1198 -5.55112e-17
297 1 5.08472 30.9341 -5.55112e-17
298 2 197.476 45.4618 -5.55112e-17
299 1 159.474 90.7747 -5.55112e-17
300 2 172.283 64.4992 -5.55112e-17
301 2 70.5004 2.34718 -5.55112e-17
302 2 43.0765 68.5626 -5.55112e-17
303 1 67.4289 93.0578 -5.55112e-17
304 1 34.6984 170.962 -5.55112e-17
305 1 127.108 159.505 -5.55112e-17
306 2 111.124 49.0205 -5.55112e-17
307 2 211.68 47.8832 -5.55112e-17
308 2 147.195 42.5004 -5.55112e-17
309 1 90.6585 104.315 -5.55112e-17
310 1 38.3217 127.18 -5.55112e-17
311 1 47.1302 70.6426 -5.55112e-17
312 2 201.999 142.194 -5.55112e-17
313 2 205.819 159.647 -5.55112e-17
314 1 9.33999 217.569 -5.55112e-17
315 2 136.837 140.376 -5.55112e-17
316 1 92.809 128.851 -5.55112e-17
317 1 88.0201 67.8234 -5.55112e-17
318 1 28.7503 182.698 -5.55112e-17
319 2 40.6978 95.5221 -5.55112e-17
320 1 62.4897 13.5138 -5.55112e-17
321 1 68.2955 3.7299 -5.55112e-17
322 1 26.9217 33.8268 -5.55112e-17
323 2 152.488 12.6344 -5.55112e-17
324 2 196.369 105.309 -5.55112e-17
325 2 70.1049 92.8221 -5.55112e-17
326 1 95.7929 2.15414 -5.55112e-17
327 1 23.0336 156.225 -5.55112e-17
328 2 77.1942 141.028 -5.55112e-17
329 2 163.602 100.056 -5.55112e-17
330 2 125.079 158.195 -5.55112e-17
331 2 72.6046 167.724 -5.55112e-17
332 2 14.2893 29.631 -5.55112e-17
333 2 127.284 2.16299 -5.55112e-17
334 2 124.919 125.909 -5.55112e-17
335 1 20.9608 125.46 -5.55112e-17
336 2 15.1389 139.951 -5.55112e-17
337 2 205.92 181.076 -5.55112e-17
338 1 38.1522 146.589 -5.55112e-17
339 2 151.676 121.379 -5.55112e-17
340 2 81.7067 9.17758 -5.55112e-17
341 2 56.4812 1.31511 -5.55112e-17
342 2 16.0202 157.832 -5.55112e-17
343 2 135.917 187.489 -5.55112e-17
344 1 10.323 0.800871 -5.55112e-17
345 2 60.8143 23.123 -5.55112e-17
346 2 60.0743 174.3 -5.55112e-17
347 1 194.397 22.1287 -5.55112e-17
348 1 204.221 218.622 -5.55112e-17
349 2 186.364 89.1922 -5.55112e-17
350 2 191.47 59.9078 -5.55112e-17
351 1 38.377 39.679 -5.55112e-17
352 1 33.5861 70.239 -5.55112e-17
353 2 7.00371 149.973 -5.55112e-17
354 2 19.4655 170.611 -5.55112e-17
355 1 82.4125 55.1764 -5.55112e-17
356 2 176.924 85.2788 -5.55112e-17
357 1 19.579 88.8008 -5.55112e-17
358 1 49.686 150.014 -5.55112e-17
359 1 134.551 122.272 -5.55112e-17
360 1 67.043 113.174 -5.55112e-17
361 2 8.01564 135.529 -5.55112e-17
362 2 65.8818 4.54768 -5.55112e-17
363 1 139.633 163.083 -5.55112e-17
364 2 18.8688 132.936 -5.55112e-17
365 1 201.576 59.5735 -5.55112e-17
366 1 164.09 120.012 -5.55112e-17
367 1 179.463 132.875 -5.55112e-17
368 1 191.013 166.256 -5.55112e-17
369 2 12.3899 49.6796 -5.55112e-17
370 1 66.8319 146.75 -5.55112e-17
371 2 188.092 145.561 -5.55112e-17
372 1 12.6521 54.6085 -5.55112e-17
373 2 166.753 174.475 -5.55112e-17
374 2 145.513 196.393 -5.55112e-17
375 1 121.604 22.7606 -5.55112e-17
376 1 200.913 154.16 -5.55112e-17
377 2 12.9271 131.298 -5.55112e-17
378 2 196.567 31.2478 -5.55112e-17
379 2 135.914 102.713 -5.55112e-17
380 1 181.589 102.835 -5.55112e-17
381 1 117.776 129.583 -5.55112e-17
382 1 38.7258 114.623 -5.55112e-17
383 1 81.4714 60.579 -5.55112e-17
384 2 149.219 146.222 -5.55112e-17
385 1 157.824 134.28 -5.55112e-17
386 2 84.1896 184.917 -5.55112e-17
387 1 104.03 210.866 -5.55112e-17
388 1 161.819 145.468 -5.55112e-17
389 2 114.901 72.7982 -5.55112e-17
390 1 84.7203 100.649 -5.55112e-17
391 1 65.4285 7.125 -5.55112e-17
392 2 132.027 26.8557 -5.55112e-17
393 2 132.377 69.0239 -5.55112e-17
394 1 190.412 146.537 -5.55112e-17
395 1 128.807 171.431 -5.55112e-17
396 2 48.5576 104.325 -5.55112e-17
397 1 108.541 212.282 -5.55112e-17
398 2 175.463 87.7813 -5.55112e-17
399 2 45.2453 37.7234 -5.55112e-17
400 2 60.4366 148.814 -5.55112e-17
401 2 189.419 62.298 -5.55112e-17
402 1 46.7078 169.487 -5.55112e-17
403 1 11.5606 2.93405 -5.55112e-17
404 2 36.3287 103.388 -5.55112e-17
405 1 31.2905 103.882 -5.55112e-17
406 2 183.401 210.733 -5.55112e-17
407 1 120.395 134.179 -5.55112e-17
408 1 56.9839 102.674 -5.55112e-17
409 2 4.04455 63.387 -5.55112e-17
410 2 62.5955 129.031 -5.55112e-17
411 1 55.1317 9.97448 -5.55112e-17
412 1 216.718 111.339 -5.55112e-17
413 1 170.957 39.8 -5.55112e-17
414 2 170.819 57.1138 -5.55112e-17
415 1 86.4299 75.8128 -5.55112e-17
416 1 85.4534 142.211 -5.55112e-17
417 2 17.5684 95.058 -5.55112e-17
418 2 121.933 42.3279 -5.55112e-17
419 2 72.6728 46.3633 -5.55112e-17
420 2 18.9628 101.197 -5.55112e-17
421 1 99.0844 218.131 -5.55112e-17
422 1 64.8864 92.7533 -5.55112e-17
423 2 207.435 95.9826 -5.55112e-17
424 2 216.351 31.9758 -5.55112e-17
425 2 57.0451 79.8144 -5.55112e-17
426 1 62.3367 188.681 -5.55112e-17
427 2 55.0305 40.1648 -5.55112e-17
428 1 51.8946 54.1031 -5.55112e-17
429 2 67.5669 161.903 -5.55112e-17
430 2 43.0609 99.4836 -5.55112e-17
431 1 62.417 67.054 -5.55112e-17
432 2 124.722 216.915 -5.55112e-17
433 1 26.1232 45.8071 -5.55112e-17
434 1 185.959 210.773 -5.55112e-17
435 1 27.1165 101.918 -5.55112e-17
436 2 212.571 217.055 -5.55112e-17
437 2 184.281 157.876 -5.55112e-17
438 2 98.7033 1.65216 -5.55112e-17
439 2 65.2241 58.1405 -5.55112e-17
440 2 105.691 212.766 -5.55112e-17
441 1 70.919 122.415 -5.55112e-17
442 1 101.295 179.645 -5.55112e-17
443 2 194.559 204.608 -5.55112e-17
444 1 3.97574 22.3413 -5.55112e-17
445 1 147.563 61.8545 -5.55112e-17
446 2 93.2029 190.884 -5.55112e-17
447 2 10.4925 96.7965 -5.55112e-17
448 2 54.049 86.9558 -5.55112e-17
449 1 136.017 177.76 -5.55112e-17
450 1 18.2738 153.935 -5.55112e-17
451 1 128.981 53.3495 -5.55112e-17
452 2 191.713 202.918 -5.55112e-17
453 1 142.784 51.8603 -5.55112e-17
454 1 23.6904 135.456 -5.55112e-17
455 2 96.9097 4.42231 -5.55112e-17
456 1 50.1289 87.447 -5.55112e-17
457 2 37.4706 86.5437 -5.55112e-17
458 2 28.1128 119.605 -5.55112e-17
459 2 48.2333 147.896 -5.55112e-17
460 1 17.9783 125.285 -5.55112e-17
461 1 75.0922 183.997 -5.55112e-17
462 1 81.669 209.205 -5.55112e-17
463 2 137.159 58.4939 -5.55112e-17
464 2 20.4814 211.136 -5.55112e-17
465 1 169.021 158.46 -5.55112e-17
466 2 49.43 145.097 -5.55112e-17
467 2 7.40652 96.7236 -5.55112e-17
468 2 153.756 56.5175 -5.55112e-17
469 2 215.997 81.4701 -5.55112e-17
470 2 104.484 89.247 -5.55112e-17
471 2 58.4387 200.501 -5.55112e-17
472 2 164.687 193.979 -5.55112e-17
473 2 114.723 169.137 -5.55112e-17
474 2 97.8444 143.514 -5.55112e-17
475 1 29.255 149.866 -5.55112e-17
476 2 73.8302 49.3336 -5.55112e-17
477 1 52.9477 141.957 -5.55112e-17
478 1 150.13 161.473 -5.55112e-17
479 2 46.8878 76.0524 -5.55112e-17
480 1 84.7585 176.323 -5.55112e-17
481 1 110.151 192.335 -5.55112e-17
482 2 213.978 6.18424 -5.55112e-17
483 1 169.781 201.574 -5.55112e-17
484 1 19.8804 218.623 -5.55112e-17
485 2 142.199 0.613637 -5.55112e-17
486 1 29.964 18.6038 -5.55112e-17
487 1 72.2174 78.1205 -5.55112e-17
488 1 135.763 65.1037 -5.55112e-17
489 1 198.309 111.323 -5.55112e-17
490 1 118.275 10.348 -5.55112e-17
491 1 186.882 174.996 -5.55112e-17
492 2 188.674 18.5296 -5.55112e-17
493 1 95.3604 88.2946 -5.55112e-17
494 2 38.9875 165.243 -5.55112e-17
495 1 2.67418 205.783 -5.55112e-17
496 1 60.79 46.579 -5.55112e-17
497 1 141.149 111.588 -5.55112e-17
498 2 140.153 184.237 -5.55112e-17
499 2 105.263 96.5457 -5.55112e-17
500 2 135.485 105.552 -5.55112e-17
501 2 119.073 47.4873 -5.55112e-17
502 2 34.04 161.264 -5.55112e-17
503 2 195.743 147.333 -5.55112e-17
504 2 187.772 148.273 -5.55112e-17
505 2 36.5164 45.853 -5.55112e-17
506 1 74.6164 178.864 -5.55112e-17
507 2 193.777 142.798 -5.55112e-17
508 1 15.9963 143.536 -5.55112e-17
509 1 47.2768 34.8948 -5.55112e-17
510 1 39.295 3.18704 -5.55112e-17
511 2 118.489 34.861 -5.55112e-17
512 1 146.223 141.104 -5.55112e-17
513 2 185.193 43.6597 -5.55112e-17
514 2 106.284 2.8447 -5.55112e-17
515 1 188.542 120.822 -5.55112e-17
516 2 39.7248 56.6012 -5.55112e-17
517 1 119.722 154.46 -5.55112e-17
518 2 130.543 16.6409 -5.55112e-17
519 1 218.08 66.4443 -5.55112e-17
520 2 217.084 218.576 -5.55112e-17
521 2 80.05 126.017 -5.55112e-17
522 1 50.3015 116.525 -5.55112e-17
523 1 83.8781 76.2571 -5.55112e-17
524 2 214.965 106.49 -5.55112e-17
525 2 155.697 78.2191 -5.55112e-17
526 2 40.2151 34.2401 -5.55112e-17
527 1 169.527 184.072 -5.55112e-17
528 1 186.138 49.5766 -5.55112e-17
529 2 5.64501 127.889 -5.55112e-17
530 2 2.89892 29.6977 -5.55112e-17
531 2 38.6617 151.206 -5.55112e-17
532 1 191.984 96.7854 -5.55112e-17
533 2 180.574 105.191 -5.55112e-17
534 1 19.7735 194.592 -5.55112e-17
535 1 142.686 182.69 -5.55112e-17
536 2 75.3313 167.019 -5.55112e-17
537 1 6.6253 145.401 -5.55112e-17
538 1 58.9129 215.085 -5.55112e-17
539 2 100.84 10.3062 -5.55112e-17
540 1 158.069 196.229 -5.55112e-17
541 1 15.0047 32.3368 -5.55112e-17
542 1 159.636 39.7998 -5.55112e-17
543 2 30.5111 30.9502 -5.55112e-17
544 1 164.977 213.929 -5.55112e-17
545 1 208.695 100.672 -5.55112e-17
546 2 217.045 121.24 -5.55112e-17
547 1 121.872 95.0878 -5.55112e-17
548 1 125.18 105.894 -5.55112e-17
549 2 38.4422 43.6477 -5.55112e-17
550 2 206.307 196.862 -5.55112e-17
551 2 7.42332 89.0697 -5.55112e-17
552 1 64.3004 44.7843 -5.55112e-17
553 2 212.39 96.6164 -5.55112e-17
554 2 107.056 128.621 -5.55112e-17
555 2 153.168 34.0123 -5.55112e-17
556 1 44.2715 191.816 -5.55112e-17
557 1 74.5931 18.8108 -5.55112e-17
558 1 52.9127 215.779 -5.55112e-17
559 2 23.0316 187.053 -5.55112e-17
560 2 120.939 209.614 -5.55112e-17
561 2 144.299 160.32 -5.55112e-17
562 2 83.5898 136.334 -5.55112e-17
563 1 19.2985 4.00183 -5.55112e-17
564 2 200.656 124.031 -5.55112e-17
565 2 0.558026 163.262 -5.55112e-17
566 2 214.345 94.3075 -5.55112e-17
567 1 11.0491 182.287 -5.55112e-17
568 1 96.3461 195.653 -5.55112e-17
569 2 66.6269 133.841 -5.55112e-17
570 2 207.343 26.2417 -5.55112e-17
571 2 135.885 108.677 -5.55112e-17
572 1 210.2 42.3123 -5.55112e-17
573 2 216.969 193.107 -5.55112e-17
574 2 173.652 17.9733 -5.55112e-17
575 1 168.816 58.9321 -5.55112e-17
576 1 153.434 53.6875 -5.55112e-17
577 1 48.3695 6.64672 -5.55112e-17
578 1 173.414 112.414 -5.55112e-17
579 2 95.1905 40.5481 -5.55112e-17
580 1 2.6064 146.449 -5.55112e-17
581 1 164.696 208.965 -5.55112e-17
582 2 112.815 70.4703 -5.55112e-17
583 2 33.3852 6.90818 -5.55112e-17
584 2 85.1263 78.7702 -5.55112e-17
585 1 100.547 73.1961 -5.55112e-17
586 1 155.423 168.645 -5.55112e-17
587 1 95.4312 95.0269 -5.55112e-17
588 2 4.94752 43.806 -5.55112e-17
589 1 60.42 5.23832 -5.55112e-17
590 2 162.148 51.9956 -5.55112e-17
591 2 120.118 76.2316 -5.55112e-17
592 1 77.8635 88.2785 -5.55112e-17
593 1 207.13 190.588 -5.55112e-17
594 1 120.441 136.618 -5.55112e-17
595 1 89.0832 181.576 -5.55112e-17
596 2 181.636 95.043 -5.55112e-17
597 2 95.5491 10.29 -5.55112e-17
598 2 4.66591 207.221 -5.55112e-17
599 2 66.3627 88.537 -5.55112e-17
600 2 195.399 124.727 -5.55112e-17
601 1 122.336 132.823 -5.55112e-17
602 1 65.0376 9.69559 -5.55112e-17
603 2 147.249 114.939 -5.55112e-17
604 1 20.0763 69.3344 -5.55112e-17
605 2 93.3344 96.3212 -5.55112e-17
606 2 16.4671 146.681 -5.55112e-17
607 2 104.242 133.288 -5.55112e-17
608 2 15.9527 184.023 -5.55112e-17
609 1 158.572 28.7647 -5.55112e-17
610 2 90.266 14.4581 -5.55112e-17
611 1 196.64 42.8172 -5.55112e-17
612 1 166.748 93.5609 -5.55112e-17
613 2 80.2396 26.001 -5.55112e-17
614 1 166.382 206.928 -5.55112e-17
615 1 153.774 209.417 -5.55112e-17
616 2 144.764 95.1444 -5.55112e-17
617 1 189.179 5.41726 -5.55112e-17
618 1 108.065 147.256 -5.55112e-17
619 1 164.808 7.34849 -5.55112e-17
620 2 62.1379 118.18 -5.55112e-17
621 2 197.157 48.5709 -5.55112e-17
622 2 170.442 17.5087 -5.55112e-17
623 2 63.6062 104.391 -5.55112e-17
624 1 139.854 89.5182 -5.55112e-17
625 2 137.224 116.251 -5.55112e-17
626 1 183.618 168.825 -5.55112e-17
627 2 115.05 102.361 -5.55112e-17
628 1 186.051 179.63 -5.55112e-17
629 1 173.597 163.354 -5.55112e-17
630 2 153.928 139.277 -5.55112e-17
631 2 9.87042 189.921 -5.55112e-17
632 2 149.643 116.911 -5.55112e-17
633 2 208.433 23.7355 -5.55112e-17
634 2 127.83 209.903 -5.55112e-17
635 2 157.004 191.004 -5.55112e-17
636 1 18.658 196.466 -5.55112e-17
637 1 209.55 200.92 -5.55112e-17
638 1 117.026 88.2843 -5.55112e-17
639 2 5.45995 52.3555 -5.55112e-17
640 2 114.484 39.8417 -5.55112e-17
641 1 104.396 60.4719 -5.55112e-17
642 2 208.599 62.874 -5.55112e-17
643 1 24.0079 144.89 -5.55112e-17
644 2 66.4097 105.954 -5.55112e-17
645 2 59.0631 104.797 -5.55112e-17
646 1 178.972 102.982 -5.55112e-17
647 2 189.495 197.774 -5.55112e-17
648 2 200.437 161.901 -5.55112e-17
649 1 198.418 62.8484 -5.55112e-17
650 1 2.30026 48.3797 -5.55112e-17
651 1 196.792 172.026 -5.55112e-17
652 2 170.608 81.3459 -5.55112e-17
653 2 147.761 205.619 -5.55112e-17
654 1 69.5811 144.041 -5.55112e-17
655 1 216.602 137.014 -5.55112e-17
656 1 175.236 172.207 -5.55112e-17
657 1 104.393 187.129 -5.55112e-17
658 2 94.5399 61.4007 -5.55112e-17
659 2 53.6182 31.0842 -5.55112e-17
660 1 161.001 56.7148 -5.55112e-17
661 2 72.0067 127.088 -5.55112e-17
662 2 3.15273 100.282 -5.55112e-17
663 1 89.8623 35.1974 -5.55112e-17
664 1 115.67 204.973 -5.55112e-17
665 1 174.083 107.633 -5.55112e-17
666 1 52.9788 11.5591 -5.55112e-17
667 1 96.7701 35.081 -5.55112e-17
668 1 108.544 4.4439 -5.55112e-17
669 1 66.0031 31.438 -5.55112e-17
670 2 106.155 184.876 -5.55112e-17
671 1 91.9008 16.2676 -5.55112e-17
672 1 61.7404 41.42 -5.55112e-17
673 2 70.3381 26.694 -5.55112e-17
674 2 113.907 164.475 -5.55112e-17
675 2 193.795 83.764 -5.55112e-17
676 1 28.5503 35.7879 -5.55112e-17
677 2 208.761 9.76985 -5.55112e-17
678 1 111.539 12.7847 -5.55112e-17
679 1 96.9009 77.5105 -5.55112e-17
680 2 115.941 107.764 -5.55112e-17
681 1 9.29262 64.4797 -5.55112e-17
682 1 189.037 169.925 -5.55112e-17
683 2 206.59 83.587 -5.55112e-17
684 1 95.0751 128.566 -5.55112e-17
685 1 190.411 184.668 -5.55112e-17
686 1 156.944 172.513 -5.55112e-17
687 1 57.327 198.052 -5.55112e-17
688 1 64.6475 184.327 -5.55112e-17
689 2 187.084 156.923 -5.55112e-17
690 1 183.52 160.887 -5.55112e-17
691 2 218.321 74.3197 -5.55112e-17
692 2 203.327 51.9347 -5.55112e-17
693 1 119.539 217.509 -5.55112e-17
694 2 47.683 99.4866 -5.55112e-17
695 2 17.7365 181.447 -5.55112e-17
696 2 218.38 60.8196 -5.55112e-17
697 1 86.9088 168.29 -5.55112e-17
698 2 21.8404 23.0905 -5.55112e-17
699 1 174.79 205.848 -5.55112e-17
700 2 167.393 80.5787 -5.55112e-17
701 2 77.9837 198.016 -5.55112e-17
702 1 139.391 48.5882 -5.55112e-17
703 1 67.4643 123.218 -5.55112e-17
704 1 142.236 167.199 -5.55112e-17
705 1 181.865 156.707 -5.55112e-17
706 1 137.011 113.716 -5.55112e-17
707 1 189.677 0.230571 -5.55112e-17
708 2 144.075 133.14 -5.55112e-17
709 1 170.872 137.685 -5.55112e-17
710 2 41.4169 181.482 -5.55112e-17
711 2 186.68 77.1346 -5.55112e-17
712 1 44.299 217.351 -5.55112e-17
713 1 198.46 202.883 -5.55112e-17
714 2 1.90134 181.901 -5.55112e-17
715 2 142.46 61.2647 -5.55112e-17
716 1 100.615 77.2783 -5.55112e-17
717 1 98.3938 9.36136 -5.55112e-17
718 2 183.206 126.997 -5.55112e-17
719 1 128.751 9.26516 -5.55112e-17
720 2 175.179 32.7506 -5.55112e-17
721 2 26.1161 183.48 -5.55112e-17
722 2 11.3758 116.575 -5.55112e-17
723 2 21.6943 115.169 -5.55112e-17
724 2 179.073 213.307 -5.55112e-17
725 2 86.4039 137.211 -5.55112e-17
726 2 109.509 162.53 -5.55112e-17
727 2 18.4437 79.0884 -5.55112e-17
728 1 63.7225 53.0898 -5.55112e-17
729 2 130.532 200.519 -5.55112e-17
730 2 79.6999 101.159 -5.55112e-17
731 1 186.482 27.166 -5.55112e-17
732 2 181.713 74.3861 -5.55112e-17
733 2 136.12 131.64 -5.55112e-17
734 2 178.097 153.331 -5.55112e-17
735 2 102.485 84.369 -5.55112e-17
736 1 43.535 30.7777 -5.55112e-17
737 2 121.115 86.932 -5.55112e-17
738 2 147.834 198.161 -5.55112e-17
739 2 105.042 43.5932 -5.55112e-17
740 2 125.7 14.9897 -5.55112e-17
741 2 19.5859 109.278 -5.55112e-17
742 1 117.726 24.6422 -5.55112e-17
743 2 57.3437 217.391 -5.55112e-17
744 1 130.93 187.251 -5.55112e-17
745 2 101.589 0.101076 -5.55112e-17
746 1 214.877 191.446 -5.55112e-17
747 1 101.334 124.247 -5.55112e-17
748 2 8.06571 132.565 -5.55112e-17
749 1 139.67 84.9475 -5.55112e-17
750 1 98.323 172.963 -5.55112e-17
751 1 170.997 203.789 -5.55112e-17
752 2 117.661 177.178 -5.55112e-17
753 1 77.8234 177.638 -5.55112e-17
754 2 18.6399 106.329 -5.55112e-17
755 1 190.34 153.498 -5.55112e-17
756 2 169.268 152.513 -5.55112e-17
757 1 184.472 111.901 -5.55112e-17
758 2 1.1985 65.2686 -5.55112e-17
759 1 158.085 206.042 -5.55112e-17
760 1 64.953 168.85 -5.55112e-17
761 2 89.5653 79.7074 -5.55112e-17
762 1 129.613 113.205 -5.55112e-17
763 2 133.371 94.6244 -5.55112e-17
764 2 181.247 34.5356 -5.55112e-17
765 1 124.399 8.47357 -5.55112e-17
766 2 212.932 89.6203 -5.55112e-17
767 2 105.495 145.822 -5.55112e-17
768 2 164.032 174.868 -5.55112e-17
769 2 146.557 210.154 -5.55112e-17
770 1 146.943 108.245 -5.55112e-17
771 1 150.644 33.3606 -5.55112e-17
772 1 97.9166 175.214 -5.55112e-17
773 2 24.7566 114.341 -5.55112e-17
774 1 193.22 118.035 -5.55112e-17
775 1 53.1952 26.0332 -5.55112e-17
776 2 45.5825 16.3579 -5.55112e-17
777 2 98.6375 70.8637 -5.55112e-17
778 1 23.2369 79.8527 -5.55112e-17
779 1 176.895 50.6439 -5.55112e-17
780 2 4.76901 188.894 -5.55112e-17
781 1 104.398 174.915 -5.55112e-17
782 2 125.104 139.631 -5.55112e-17
783 1 200.423 91.4859 -5.55112e-17
784 2 184.267 107.247 -5.55112e-17
785 1 7.26537 212.244 -5.55112e-17
786 1 132.133 154.083 -5.55112e-17
787 2 177.025 25.3585 -5.55112e-17
788 2 67.5894 8.82403 -5.55112e-17
789 2 130.051 197.451 -5.55112e-17
790 2 3.95254 200.911 -5.55112e-17
791 2 8.06418 215.172 -5.55112e-17
792 1 120.642 99.8804 -5.55112e-17
793 1 103.517 6.47396 -5.55112e-17
794 2 59.4711 67.9231 -5.55112e-17
795 2 11.1634 52.4461 -5.55112e-17
796 1 153.605 178.536 -5.55112e-17
797 1 112.876 120.101 -5.55112e-17
798 1 125.347 81.1113 -5.55112e-17
799 2 119.429 12.9974 -5.55112e-17
800 1 191.648 190.946 -5.55112e-17
801 2 44.8823 154.822 -5.55112e-17
802 1 110.82 109.344 -5.55112e-17
803 1 209.371 105.713 -5.55112e-17
804 1 83.0132 165.185 -5.55112e-17
805 2 161.923 192.482 -5.55112e-17
806 2 176.97 77.3668 -5.55112e-17
807 2 19.4387 123.084 -5.55112e-17
808 2 145.149 0.0834951 -5.55112e-17
809 1 197.667 165.504 -5.55112e-17
810 2 23.5104 184.374 -5.55112e-17
811 2 67.6178 36.5777 -5.55112e-17
812 1 14.2784 56.7064 -5.55112e-17
813 1 84.6272 39.8483 -5.55112e-17
814 1 91.0819 74.5356 -5.55112e-17
815 1 91.6954 168.612 -5.55112e-17
816 1 145.95 185.38 -5.55112e-17
817 2 85.436 201.499 -5.55112e-17
818 2 68.1637 107.954 -5.55112e-17
819 2 56.0434 166.318 -5.55112e-17
820 1 10.483 42.926 -5.55112e-17
821 1 179.348 9.52559 -5.55112e-17
822 2 198.199 40.6034 -5.55112e-17
823 1 154.038 14.4854 -5.55112e-17
824 1 214.153 179.928 -5.55112e-17
825 1 77.5932 175.389 -5.55112e-17
826 2 76.6612 21.0189 -5.55112e-17
827 2 79.3138 210.02 -5.55112e-17
828 1 193.191 164.986 -5.55112e-17
829 2 180.498 196.773 -5.55112e-17
830 1 194.384 34.2214 -5.55112e-17
831 2 42.1699 216.007 -5.55112e-17
832 2 24.4287 66.9125 -5.55112e-17
833 2 104.258 14.1708 -5.55112e-17
834 1 62.3679 92.5572 -5.55112e-17
835 1 101.369 88.8125 -5.55112e-17
836 1 72.6778 124.241 -5.55112e-17
837 2 120.902 212.629 -5.55112e-17
838 2 89.5567 178.767 -5.55112e-17
839 1 193.2 178.261 -5.55112e-17
840 2 185.263 182.314 -5.55112e-17
841 2 150.282 127.308 -5.55112e-17
842 1 27.7091 147.7 -5.55112e-17
843 1 17.4712 12.0662 -5.55112e-17
844 2 88.7132 22.698 -5.55112e-17
845 1 52.5316 137.552 -5.55112e-17
846 2 31.8046 129.204 -5.55112e-17
847 1 108.167 145.009 -5.55112e-17
848 2 37.6156 186.909 -5.55112e-17
849 1 153.696 122.696 -5.55112e-17
850 2 202.641 107.526 -5.55112e-17
851 2 1.34613 121.874 -5.55112e-17
852 1 38.0857 96.0321 -5.55112e-17
853 1 56.5032 151.715 -5.55112e-17
854 2 166.937 171.064 -5.55112e-17
855 2 59.1178 139.21 -5.55112e-17
856 1 60.5383 141.419 -5.55112e-17
857 2 183.431 179.787 -5.55112e-17