ITEM: TIMESTEP
0
ITEM: NUMBER OF ATOMS
7200
ITEM: BOX BOUNDS xy xz yz pp pp pp
0.0000000000000000e+00 2.1900000000000000e+02 0.0000000000000000e+00
0.0000000000000000e+00 2.1900000000000000e+02 0.0000000000000000e+00
-3.6499999999999999e-01 3.6499999999999999e-01 0.0000000000000000e+00
ITEM: ATOMS id type x y z
1 1 183.167 12.7148 -5.55112e-17
2 2 188.356 183.332 -5.55112e-17
3 2 144.436 189.424 -5.55112e-17
4 1 122.947 110.141 -5.55112e-17
5 1 101.308 122.632 -5.55112e-17
6 1 104.812 25.362 -5.55112e-17
7 2 158.708 129.326 -5.55112e-17
8 2 69.7945 25.6488 -5.55112e-17
9 1 22.0736 215.38 -5.55112e-17
10 2 52.4146 166.77 -5.55112e-17
11 2 209.928 100.213 -5.55112e-17
12 1 34.1012 197.839 -5.55112e-17
13 2 194.235 53.97 -5.55112e-17
14 1 57.2927 184.358 -5.55112e-17
15 2 193.486 0.0113662 -5.55112e-17
16 2 218.618 85.8936 -5.55112e-17
17 1 67.4575 74.1198 -5.55112e-17
18 2 10.4162 172.52 -5.55112e-17
19 1 92.958 129.996 -5.55112e-17
20 1 72.8477 11.2479 -5.55112e-17
21 1 156.024 6.99358 -5.55112e-17
22 2 31.9018 212.452 -5.55112e-17
23 2 43.315 208.271 -5.55112e-17
24 2 218.727 103.015 -5.55112e-17
25 2 30.2457 207.511 -5.55112e-17
26 2 149.906 28.3872 -5.55112e-17
27 1 217.252 162.324 -5.55112e-17
28 2 54.188 154.721 -5.55112e-17
29 2 83.4313 3.89782 -5.55112e-17
30 2 132.467 37.545 -5.55112e-17
31 2 156.711 84.065 -5.55112e-17
32 1 48.4309 108.299 -5.55112e-17
33 2 145.24 87.5911 -5.55112e-17
34 2 16.2328 96.1222 -5.55112e-17
35 2 127.182 11.6833 -5.55112e-17
36 1 160.039 146.955 -5.55112e-17
37 1 133.288 185.336 -5.55112e-17
38 2 209.314 157.758 -5.55112e-17
39 1 7.88526 37.8909 -5.55112e-17
40 2 196.719 73.698 -5.55112e-17
41 1 192.573 73.2715 -5.55112e-17
42 1 55.0791 58.4745 -5.55112e-17
43 1 210.458 132.171 -5.55112e-17
44 1 155.065 188.892 -5.55112e-17
45 2 159.351 61.514 -5.55112e-17
46 1 123.973 192.921 -5.55112e-17
47 2 89.4559 80.871 -5.55112e-17
48 2 150.842 130.234 -5.55112e-17
49 1 194.291 200.143 -5.55112e-17
50 2 29.0263 47.3984 -5.55112e-17
51 1 186.651 3.05311 -5.55112e-17
52 1 115.881 48.2997 -5.55112e-17
53 2 54.9275 200.8 -5.55112e-17
54 1 38.5455 16.695 -5.55112e-17
55 2 53.5834 141.104 -5.55112e-17
56 1 31.6897 132.384 -5.55112e-17
57 2 58.4725 133.571 -5.55112e-17
58 1 186.389 33.4349 -5.55112e-17
59 1 157.725 86.6552 -5.55112e-17
60 2 206.08 59.2517 -5.55112e-17
61 1 157.45 164.632 -5.55112e-17
62 1 106.791 111.926 -5.55112e-17
63 2 108.992 39.0004 -5.55112e-17
64 1 28.424 18.1919 -5.55112e-17
65 2 152.263 149.302 -5.55112e-17
66 2 13.2721 155.031 -5.55112e-17
67 2 182.836 108.069 -5.55112e-17
68 1 136.698 83.3247 -5.55112e-17
69 2 109.551 168.702 -5.55112e-17
70 1 142.144 98.0398 -5.55112e-17
71 1 198.442 148.067 -5.55112e-17
72 2 44.9546 157.437 -5.55112e-17
73 2 191.689 179.596 -5.55112e-17
74 2 111.257 67.2417 -5.55112e-17
75 1 14.9748 136.53 -5.55112e-17
76 2 137.573 206.255 -5.55112e-17
77 2 168.987 15.3388 -5.55112e-17
78 1 92.8455 208.192 -5.55112e-17
79 2 60.3838 75.7083 -5.55112e-17
80 1 49.9621 22.6507 -5.55112e-17
81 1 181.843 211.28 -5.55112e-17
82 1 173.899 41.1812 -5.55112e-17
83 1 71.2949 90.7633 -5.55112e-17
84 2 140.752 179.55 -5.55112e-17
85 2 150.859 146.268 -5.55112e-17
86 2 50.6816 67.7686 -5.55112e-17
87 2 38.4445 75.451 -5.55112e-17
88 1 80.6655 157.421 -5.55112e-17
89 2 199.707 105.686 -5.55112e-17
90 2 126.772 36.3612 -5.55112e-17
91 2 11.2325 182.316 -5.55112e-17
92 1 27.7093 215.441 -5.55112e-17
93 2 110.166 154.87 -5.55112e-17
94 2 112.565 144.457 -5.55112e-17
95 1 211.503 51.6738 -5.55112e-17
96 2 31.8436 54.291 -5.55112e-17
97 2 4.30565 211.457 -5.55112e-17
98 2 35.497 185.182 -5.55112e-17
99 1 105.214 9.70355 -5.55112e-17
100 2 158.624 65.9827 -5.55112e-17
101 1 184.183 110.212 -5.55112e-17
102 1 66.2803 164.181 -5.55112e-17
103 2 204.718 100.261 -5.55112e-17
104 2 104.244 73.0915 -5.55112e-17
105 1 160.664 59.3324 -5.55112e-17
106 1 185.185 61.1128 -5.55112e-17
107 1 12.4997 106.917 -5.55112e-17
108 1 69.7375 210.022 -5.55112e-17
109 2 217.398 38.9664 -5.55112e-17
110 2 145.333 29.7875 -5.55112e-17
111 1 52.9586 92.0509 -5.55112e-17
112 2 8.0649 50.613 -5.55112e-17
113 1 135.276 11.1407 -5.55112e-17
114 1 92.4651 87.1132 -5.55112e-17
115 2 32.0307 59.8717 -5.55112e-17
116 2 184.216 15.2171 -5.55112e-17
117 1 163.056 110.845 -5.55112e-17
118 1 82.8791 94.2179 -5.55112e-17
119 2 98.8647 139.49 -5.55112e-17
120 2 201.081 58.4334 -5.55112e-17
121 1 205.088 139.168 -5.55112e-17
122 2 143.091 129.951 -5.55112e-17
123 2 7.21398 129.602 -5.55112e-17
124 1 161.228 200.715 -5.55112e-17
125 1 87.9303 192.866 -5.55112e-17
126 2 97.6309 84.468 -5.55112e-17
127 2 208.895 110.83 -5.55112e-17
128 1 121.828 105.033 -5.55112e-17
129 1 143.926 194.478 -5.55112e-17
130 2 119.854 61.4805 -5.55112e-17
131 1 133.581 60.3523 -5.55112e-17
132 1 139.636 22.3548 -5.55112e-17
133 1 181.115 105.949 -5.55112e-17
134 1 81.0524 191.536 -5.55112e-17
135 2 177.943 61.3654 -5.55112e-17
136 1 190.454 118.82 -5.55112e-17
137 1 60.9604 7.4953 -5.55112e-17
138 2 156.129 159.161 -5.55112e-17
139 1 132.724 12.2078 -5.55112e-17
140 1 144.758 208.462 -5.55112e-17
141 1 50.7361 70.1829 -5.55112e-17
142 1 213.603 191.2 -5.55112e-17
143 1 26.3839 26.1732 -5.55112e-17
144 1 46.5432 97.4655 -5.55112e-17
145 2 193.311 80.1058 -5.55112e-17
146 1 153.955 126.243 -5.55112e-17
147 2 16.4746 134.239 -5.55112e-17
148 1 24.6361 133.121 -5.55112e-17
149 1 147.024 190.135 -5.55112e-17
150 2 66.1284 52.3361 -5.55112e-17
151 1 132.301 138.272 -5.55112e-17
152 1 164.357 163.73 -5.55112e-17
153 2 124.046 130.347 -5.55112e-17
154 1 184.171 52.9215 -5.55112e-17
155 2 202.752 39.8216 -5.55112e-17
156 2 109.091 197.019 -5.55112e-17
157 2 166.316 29.0721 -5.55112e-17
158 2 27.9336 7.95696 -5.55112e-17
159 2 12.0942 158.516 -5.55112e-17
160 2 120.616 54.2583 -5.55112e-17
161 2 129.585 139.06 -5.55112e-17
162 1 23.7573 66.3633 -5.55112e-17
163 1 189.264 33.4871 -5.55112e-17
164 2 108.094 134.803 -5.55112e-17
165 1 48.7027 71.6393 -5.55112e-17
166 2 6.28475 200.019 -5.55112e-17
167 1 106.995 167.876 -5.55112e-17
168 1 211.088 103.045 -5.55112e-17
169 2 97.795 199.357 -5.55112e-17
170 1 66.0235 206.357 -5.55112e-17
171 1 137.322 92.6663 -5.55112e-17
172 1 199.444 199.58 -5.55112e-17
173 1 39.3243 204.254 -5.55112e-17
174 2 38.5967 173.281 -5.55112e-17
175 2 50.0591 199.792 -5.55112e-17
176 1 119.674 151.488 -5.55112e-17
177 2 105.24 15.4433 -5.55112e-17
178 1 25.3715 7.70564 -5.55112e-17
179 2 106.014 197.274 -5.55112e-17
180 1 46.9818 76.2345 -5.55112e-17
181 1 16.2494 119.455 -5.55112e-17
182 1 113.857 86.8355 -5.55112e-17
183 1 63.9255 168.327 -5.55112e-17
184 2 157.788 25.472 -5.55112e-17
185 2 190.103 78.8431 -5.55112e-17
186 2 74.2073 206.42 -5.55112e-17
187 2 158.796 202.308 -5.55112e-17
188 2 60.3292 28.3435 -5.55112e-17
189 1 191.061 58.2536 -5.55112e-17
190 1 196.418 55.4811 -5.55112e-17
191 2 35.6072 104.297 -5.55112e-17
192 2 90.9951 61.3659 -5.55112e-17
193 1 108.507 165.943 -5.55112e-17
194 1 26.7886 5.57552 -5.55112e-17
195 2 58.4456 119.685 -5.55112e-17
196 1 0.187645 218.749 -5.55112e-17
197 2 118.375 48.7946 -5.55112e-17
198 2 205.765 27.1123 -5.55112e-17
199 2 99.5574 170.74 -5.55112e-17
200 2 98.9727 30.8377 -5.55112e-17
201 2 103.193 120.933 -5.55112e-17
202 1 43.9844 33.9997 -5.55112e-17
203 1 18.0051 43.0655 -5.55112e-17
204 2 44.6281 78.2458 -5.55112e-17
205 2 182.908 182.24 -5.55112e-17
206 2 170.633 127.409 -5.55112e-17
207 1 74.2825 189.443 -5.55112e-17
208 2 134.948 54.5465 -5.55112e-17
209 2 32.965 142.108 -5.55112e-17
210 1 182.305 113.557 -5.55112e-17
211 1 207.85 35.416 -5.55112e-17
212 1 208.491 84.9873 -5.55112e-17
213 1 128.238 123.954 -5.55112e-17
214 2 12.0638 11.6581 -5.55112e-17
215 1 5.77012 142.402 -5.55112e-17
216 1 55.0864 46.2955 -5.55112e-17
217 1 164.386 61.705 -5.55112e-17
218 2 201.398 121.163 -5.55112e-17
219 2 135.887 189.828 -5.55112e-17
220 1 121.455 1.46313 -5.55112e-17
221 2 83.0023 7.14794 -5.55112e-17
222 1 158.372 157.632 -5.55112e-17
223 1 46.228 120.269 -5.55112e-17
224 2 145.75 71.5163 -5.55112e-17
225 2 169.23 163.946 -5.55112e-17
226 1 196.817 10.2339 -5.55112e-17
227 2 203.427 214.571 -5.55112e-17
228 2 117.767 63.6214 -5.55112e-17
229 1 47.4459 22.5618 -5.55112e-17
230 1 4.69021 56.3809 -5.55112e-17
231 2 137.705 161.054 -5.55112e-17
232 1 18.3579 212.815 -5.55112e-17
233 2 75.727 195.819 -5.55112e-17
234 1 0.525795 59.7274 -5.55112e-17
235 1 150.37 106.351 -5.55112e-17
236 2 153.359 53.4608 -5.55112e-17
237 2 99.1305 204.059 -5.55112e-17
238 2 94.8108 140.711 -5.55112e-17
239 1 35.4252 216.763 -5.55112e-17
240 1 129.827 91.0206 -5.55112e-17
241 2 3.44409 124.485 -5.55112e-17
242 1 193.955 28.1683 -5.55112e-17
243 2 215.201 130.262 -5.55112e-17
244 2 35.7945 190.959 -5.55112e-17
245 1 174.069 21.2823 -5.55112e-17
246 2 90.3273 85.5305 -5.55112e-17
247 2 198.895 151.002 -5.55112e-17
248 1 38.0851 27.3341 -5.55112e-17
249 1 131.893 108.712 -5.55112e-17
250 1 134.455 28.0451 -5.55112e-17
251 2 101.766 43.27 -5.55112e-17
252 1 110.652 157.254 -5.55112e-17
253 2 95.9861 97.7926 -5.55112e-17
254 2 179.324 205.282 -5.55112e-17
255 2 120.934 51.1168 -5.55112e-17
256 1 3.2438 180.213 -5.55112e-17
257 2 32.7483 195.255 -5.55112e-17
258 1 210.965 81.2686 -5.55112e-17
259 2 160.944 141.884 -5.55112e-17
260 1 40.6421 192.702 -5.55112e-17
261 2 142.793 176.933 -5.55112e-17
262 2 186.962 110.402 -5.55112e-17
263 2 94.1125 172.813 -5.55112e-17
264 1 198.633 36.3896 -5.55112e-17
265 1 157.432 187.359 -5.55112e-17
266 1 98.6001 196.651 -5.55112e-17
267 2 115.594 16.2729 -5.55112e-17
268 1 218.694 48.7516 -5.55112e-17
269 2 10.1539 113.504 -5.55112e-17
270 2 185.451 148.808 -5.55112e-17
271 2 187.604 94.914 -5.55112e-17
272 1 58.9451 25.718 -5.55112e-17
273 1 70.8181 83.2641 -5.55112e-17
274 1 38.4363 196.587 -5.55112e-17
275 1 147.236 110.379 -5.55112e-17
276 1 199.127 74.7671 -5.55112e-17
277 1 100.618 37.9647 -5.55112e-17
278 2 60.7961 145.313 -5.55112e-17
279 2 160.21 86.8248 -5.55112e-17
280 1 116.811 210.665 -5.55112e-17
281 2 169.849 182.554 -5.55112e-17
282 2 75.4312 126.897 -5.55112e-17
283 2 0.190168 150.8 -5.55112e-17
284 1 126.035 113.839 -5.55112e-17
285 1 73.2187 165.178 -5.55112e-17
286 2 29.8945 180.323 -5.55112e-17
287 2 93.4293 109.905 -5.55112e-17
288 1 104.08 123.379 -5.55112e-17
289 2 193.792 57.006 -5.55112e-17
290 1 101.554 29.7603 -5.55112e-17
291 2 95.8679 185.962 -5.55112e-17
292 1 77.0969 124.862 -5.55112e-17
293 1 159.49 168.257 -5.55112e-17
294 1 29.7467 177.635 -5.55112e-17
295 2 46.8781 145.678 -5.55112e-17
296 1 196.757 176.998 -5.55112e-17
297 1 2.11529 18.3874 -5.55112e-17
298 2 30.5724 140.571 -5.55112e-17
299 1 177.267 56.0214 -5.55112e-17
300 2 190.15 192.869 -5.55112e-17
301 2 172.405 19.3736 -5.55112e-17
302 2 163.91 89.6452 -5.55112e-17
303 1 2.85497 151.676 -5.55112e-17
304 1 124.571 105.988 -5.55112e-17
305 1 91.9224 177.694 -5.55112e-17
306 2 83.9141 17.7168 -5.55112e-17
307 2 150.736 167.89 -5.55112e-17
308 2 142.218 22.9664 -5.55112e-17
309 1 70.6547 72.0037 -5.55112e-17
310 1 190.51 190.145 -5.55112e-17
311 1 151.187 108.76 -5.55112e-17
312 2 134.883 13.7228 -5.55112e-17
313 2 155.191 18.2562 -5.55112e-17
314 1 184.322 58.6267 -5.55112e-17
315 2 56.9453 107.483 -5.55112e-17
316 1 96.2704 30.8612 -5.55112e-17
317 1 132.689 176.059 -5.55112e-17
318 1 216.761 135.651 -5.55112e-17
319 2 74.1232 201.186 -5.55112e-17
320 1 213.929 47.8007 -5.55112e-17
321 1 52.4266 86.8324 -5.55112e-17
322 1 51.1977 147.85 -5.55112e-17
323 2 20.1187 138.385 -5.55112e-17
324 2 7.73125 95.5251 -5.55112e-17
325 2 216.488 13.1811 -5.55112e-17
326 1 184.872 1.00015 -5.55112e-17
327 1 35.7476 45.8877 -5.55112e-17
328 2 32.9142 192.217 -5.55112e-17
329 2 28.4601 83.0266 -5.55112e-17
330 2 153.544 39.2298 -5.55112e-17
331 2 187.752 68.3543 -5.55112e-17
332 2 121.447 114.914 -5.55112e-17
333 2 28.0027 150.815 -5.55112e-17
334 2 215.892 17.8948 -5.55112e-17
335 1 166.925 211.454 -5.55112e-17
336 2 27.8703 141.911 -5.55112e-17
337 2 40.3291 9.77215 -5.55112e-17
338 1 203.249 90.4358 -5.55112e-17
339 2 14.9081 152.379 -5.55112e-17
340 2 176.68 214.166 -5.55112e-17
341 2 101.56 60.2069 -5.55112e-17
342 2 173.775 166.873 -5.55112e-17
343 2 176.141 4.89195 -5.55112e-17
344 1 88.494 105.603 -5.55112e-17
345 2 26.9556 212.882 -5.55112e-17
346 2 75.1195 72.5986 -5.55112e-17
347 1 147.765 98.7092 -5.55112e-17
348 1 181.435 3.81717 -5.55112e-17
349 2 173.019 70.2994 -5.55112e-17
350 2 77.5259 178.579 -5.55112e-17
351 1 174.922 141.455 -5.55112e-17
352 1 212.928 163.702 -5.55112e-17
353 2 140.932 131.763 -5.55112e-17
354 2 191.766 176.422 -5.55112e-17
355 1 216.122 157.174 -5.55112e-17
356 2 115.149 1.46374 -5.55112e-17
357 1 126.448 192.534 -5.55112e-17
358 1 78.4863 25.462 -5.55112e-17
359 1 35.0212 143.736 -5.55112e-17
360 1 51.5521 8.20149 -5.55112e-17
361 2 196.912 68.4494 -5.55112e-17
362 2 172.426 94.8936 -5.55112e-17
363 1 78.769 215.231 -5.55112e-17
364 2 216.774 46.5487 -5.55112e-17
365 1 5.85481 164.364 -5.55112e-17
366 1 82.3371 172.899 -5.55112e-17
367 1 161.231 104.358 -5.55112e-17
368 1 21.0728 164.326 -5.55112e-17
369 2 81.6466 143.364 -5.55112e-17
370 1 6.73664 132.234 -5.55112e-17
371 2 71.4095 111.323 -5.55112e-17
372 1 87.6511 6.54095 -5.55112e-17
373 2 117.889 208.393 -5.55112e-17
374 2 177.031 101.863 -5.55112e-17
375 1 136.165 26.194 -5.55112e-17
376 1 122.008 147.38 -5.55112e-17
377 2 95.1367 75.772 -5.55112e-17
378 2 215.492 106.83 -5.55112e-17
379 2 169.475 187.567 -5.55112e-17
380 1 199.275 33.8627 -5.55112e-17
381 1 174.466 67.8339 -5.55112e-17
382 1 122.433 26.9802 -5.55112e-17
383 1 110.336 83.3868 -5.55112e-17
384 2 53.9784 100.517 -5.55112e-17
385 1 66.2679 148.627 -5.55112e-17
386 2 179.801 175.784 -5.55112e-17
387 1 34.8187 107 -5.55112e-17
388 1 143.747 164.702 -5.55112e-17
389 2 216.042 121.124 -5.55112e-17
390 1 105.003 65.9496 -5.55112e-17
391 1 203.497 217.289 -5.55112e-17
392 2 4.09049 100.63 -5.55112e-17
393 2 192.572 173.444 -5.55112e-17
394 1 36.6727 203.972 -5.55112e-17
395 1 19.4499 215.058 -5.55112e-17
396 2 75.757 87.9123 -5.55112e-17
397 1 67.818 41.6667 -5.55112e-17
398 2 165.786 111.368 -5.55112e-17
399 2 197.035 106.558 -5.55112e-17
400 2 123.685 69.0587 -5.55112e-17
401 2 84.071 190.587 -5.55112e-17
402 1 84.2916 42.9461 -5.55112e-17
403 1 69.7212 116.197 -5.55112e-17
404 2 113.48 13.5704 -5.55112e-17
405 1 49.3671 196.575 -5.55112e-17
406 2 216.799 95.994 -5.55112e-17
407 1 124.002 78.8933 -5.55112e-17
408 1 130.039 29.489 -5.55112e-17
409 2 214.459 116.011 -5.55112e-17
410 2 70.846 158.604 -5.55112e-17
411 1 136.699 97.1987 -5.55112e-17
412 1 164.449 6.90559 -5.55112e-17
413 1 34.7348 85.8226 -5.55112e-17
414 2 193.178 202.538 -5.55112e-17
415 1 107.182 126.671 -5.55112e-17
416 1 175.905 52.335 -5.55112e-17
417 2 107.428 129.397 -5.55112e-17
418 2 34.4856 179.573 -5.55112e-17
419 2 195.355 92.0685 -5.55112e-17
420 2 108.88 44.2932 -5.55112e-17
421 1 70.5076 30.7827 -5.55112e-17
422 1 34.2116 58.2192 -5.55112e-17
423 2 116.498 125.466 -5.55112e-17
424 2 39.1164 25.0135 -5.55112e-17
425 2 117.185 150.22 -5.55112e-17
426 1 185.921 96.8723 -5.55112e-17
427 2 74.9413 60.1559 -5.55112e-17
428 1 28.8489 174.914 -5.55112e-17
429 2 131.377 150.244 -5.55112e-17
430 2 111.807 104.494 -5.55112e-17
431 1 13.3152 9.40263 -5.55112e-17
432 2 173.824 3.10677 -5.55112e-17
433 1 186.557 198.616 -5.55112e-17
434 1 20.4151 205.307 -5.55112e-17
435 1 149.821 85.2651 -5.55112e-17
436 2 85.1961 198.756 -5.55112e-17
437 2 181.124 82.634 -5.55112e-17
438 2 194.215 177.575 -5.55112e-17
439 2 93.1205 9.94424 -5.55112e-17
440 2 201.141 92.1188 -5.55112e-17
441 1 130.771 167.303 -5.55112e-17
442 1 38.1835 104.446 -5.55112e-17
443 2 79.6689 81.8167 -5.55112e-17
444 1 204.509 105.021 -5.55112e-17
445 1 169.154 133.792 -5.55112e-17
446 2 183.094 150.856 -5.55112e-17
447 2 40.0987 40.1136 -5.55112e-17
448 2 206.244 176.034 -5.55112e-17
449 1 41.0127 177.225 -5.55112e-17
450 1 10.3705 125.971 -5.55112e-17
451 1 54.0434 209.527 -5.55112e-17
452 2 208.738 60.9284 -5.55112e-17
453 1 216.599 150.004 -5.55112e-17
454 1 3.18033 68.8919 -5.55112e-17
455 2 81.4027 130.774 -5.55112e-17
456 1 84.9515 1.74432 -5.55112e-17
457 2 140.585 145.473 -5.55112e-17
458 2 156.014 135.939 -5.55112e-17
459 2 133.314 51.6825 -5.55112e-17
460 1 197.619 170.183 -5.55112e-17
461 1 111.776 128.669 -5.55112e-17
462 1 103.611 196.292 -5.55112e-17
463 2 110.42 218.575 -5.55112e-17
464 2 13.7829 77.8313 -5.55112e-17
465 1 123.843 16.0016 -5.55112e-17
466 2 150.974 126.716 -5.55112e-17
467 2 66.0457 132.894 -5.55112e-17
468 2 123.88 125.647 -5.55112e-17
469 2 57.7931 71.171 -5.55112e-17
470 2 209.007 154.547 -5.55112e-17
471 2 211.986 211.292 -5.55112e-17
472 2 111.128 36.7937 -5.55112e-17
473 2 198.068 214.515 -5.55112e-17
474 2 85.0767 146.716 -5.55112e-17
475 1 163.995 183.205 -5.55112e-17
476 2 175.217 34.3585 -5.55112e-17
477 1 209.113 218.096 -5.55112e-17
478 1 46.2202 188.001 -5.55112e-17
479 2 0.721685 197.828 -5.55112e-17
480 1 82.6236 61.6944 -5.55112e-17
481 1 2.88227 209.217 -5.55112e-17
482 2 152.564 177.076 -5.55112e-17
483 1 134.37 209.255 -5.55112e-17
484 1 66.2522 135.571 -5.55112e-17
485 2 13.5515 173.752 -5.55112e-17
486 1 132.687 72.6899 -5.55112e-17
487 1 13.317 202.194 -5.55112e-17
488 1 49.9735 83.3231 -5.55112e-17
489 1 70.2654 108.637 -5.55112e-17
490 1 164.267 73.4146 -5.55112e-17
491 1 162.869 75.6881 -5.55112e-17
492 2 209.207 15.2585 -5.55112e-17
493 1 93.8626 203.198 -5.55112e-17
494 2 77.7046 66.1671 -5.55112e-17
495 1 150.041 92.3067 -5.55112e-17
496 1 52.6562 123.37 -5.55112e-17
497 1 136.796 110.412 -5.55112e-17
498 2 145.478 39.4341 -5.55112e-17
499 2 177.476 119.311 -5.55112e-17
500 2 57.1913 32.0399 -5.55112e-17
501 2 14.816 139.326 -5.55112e-17
502 2 190.811 126.462 -5.55112e-17
503 2 57.4169 63.414 -5.55112e-17
504 2 98.2672 50.3806 -5.55112e-17
505 2 112.195 213.834 -5.55112e-17
506 1 207.296 6.08525 -5.55112e-17
507 2 49.5965 181.817 -5.55112e-17
508 1 140.275 59.7007 -5.55112e-17
509 1 209.166 47.2903 -5.55112e-17
510 1 195.149 104.209 -5.55112e-17
511 2 108.115 179.365 -5.55112e-17
512 1 10.5686 42.609 -5.55112e-17
513 2 87.5503 183.234 -5.55112e-17
514 2 14.9352 87.302 -5.55112e-17
515 1 60.4013 97.9734 -5.55112e-17
516 2 101.21 74.095 -5.55112e-17
517 1 32.2386 147.453 -5.55112e-17
518 2 10.2526 14.0526 -5.55112e-17
519 1 125.317 92.0673 -5.55112e-17
520 2 209.18 93.9006 -5.55112e-17
521 2 130.241 39.9006 -5.55112e-17
522 1 187.464 7.34195 -5.55112e-17
523 1 127.798 99.8045 -5.55112e-17
524 2 175.196 18.4364 -5.55112e-17
525 2 185.653 46.6109 -5.55112e-17
526 2 108.378 15.7887 -5.55112e-17
527 1 170.642 25.039 -5.55112e-17
528 1 212.883 201.844 -5.55112e-17
529 2 104.288 176.528 -5.55112e-17
530 2 18.3828 88.1305 -5.55112e-17
531 2 184.804 171.884 -5.55112e-17
532 1 80.985 5.31969 -5.55112e-17
533 2 23.5141 157.804 -5.55112e-17
534 1 22.6693 168.495 -5.55112e-17
535 1 169.605 206.925 -5.55112e-17
536 2 18.0478 169.561 -5.55112e-17
537 1 142.539 29.528 -5.55112e-17
538 1 68.2961 157.65 -5.55112e-17
539 2 80.6538 162.998 -5.55112e-17
540 1 35.011 182.256 -5.55112e-17
541 1 105.179 128.219 -5.55112e-17
542 1 58.7812 126.222 -5.55112e-17
543 2 120.357 168.477 -5.55112e-17
544 1 217.814 211.343 -5.55112e-17
545 1 174.717 72.1794 -5.55112e-17
546 2 187.042 9.72822 -5.55112e-17
547 1 12.8607 71.6077 -5.55112e-17
548 1 29.4765 5.96836 -5.55112e-17
549 2 35.4623 152.243 -5.55112e-17
550 2 164.278 193.851 -5.55112e-17
551 2 38.5047 7.18647 -5.55112e-17
552 1 31.6047 51.6296 -5.55112e-17
553 2 207.457 196.444 -5.55112e-17
554 2 144.342 34.5629 -5.55112e-17
555 2 177.973 134.837 -5.55112e-17
556 1 177.648 211.915 -5.55112e-17
557 1 210.988 53.9978 -5.55112e-17
558 1 60.1147 142.672 -5.55112e-17
559 2 106.633 91.4068 -5.55112e-17
560 2 57.2878 88.8631 -5.55112e-17
561 2 110.253 181.43 -5.55112e-17
562 2 98.4298 64.792 -5.55112e-17
563 1 73.1724 167.823 -5.55112e-17
564 2 103.399 78.7751 -5.55112e-17
565 2 33.3389 64.8737 -5.55112e-17
566 2 64.0677 60.3335 -5.55112e-17
567 1 95.3739 11.5106 -5.55112e-17
568 1 22.7571 77.8403 -5.55112e-17
569 2 141.426 194.465 -5.55112e-17
570 2 11.6174 21.7014 -5.55112e-17
571 2 5.16981 61.8471 -5.55112e-17
572 1 115.528 107.911 -5.55112e-17
573 2 37.842 89.0635 -5.55112e-17
574 2 178.898 170.838 -5.55112e-17
575 1 196.231 206.746 -5.55112e-17
576 1 25.5476 68.237 -5.55112e-17
577 1 127.768 74.7035 -5.55112e-17
578 1 183.964 115.586 -5.55112e-17
579 2 182.362 46.7301 -5.55112e-17
580 1 109.498 103.854 -5.55112e-17
581 1 91.4597 146.598 -5.55112e-17
582 2 125.741 101.355 -5.55112e-17
583 2 103.382 84.0635 -5.55112e-17
584 2 107.062 151.636 -5.55112e-17
585 1 181.844 103.666 -5.55112e-17
586 1 142.846 80.4727 -5.55112e-17
587 1 158.358 112.115 -5.55112e-17
588 2 64.6101 108.126 -5.55112e-17
589 1 210.72 59.5016 -5.55112e-17
590 2 181.744 58.2795 -5.55112e-17
591 2 179.112 16.2829 -5.55112e-17
592 1 204.149 128.813 -5.55112e-17
593 1 127.07 90.3487 -5.55112e-17
594 1 5.44001 70.228 -5.55112e-17
595 1 33.3096 62.4256 -5.55112e-17
596 2 107.064 71.1661 -5.55112e-17
597 2 63.4902 105.079 -5.55112e-17
598 2 135.69 87.8599 -5.55112e-17
599 2 96.8578 166.087 -5.55112e-17
600 2 49.1896 98.5495 -5.55112e-17
601 1 145.949 108.007 -5.55112e-17
602 1 173.669 52.0732 -5.55112e-17
603 2 216.677 159.714 -5.55112e-17
604 1 45.7668 179.085 -5.55112e-17
605 2 140.244 100.832 -5.55112e-17
606 2 150.303 99.2214 -5.55112e-17
607 2 47.5616 169.172 -5.55112e-17
608 2 128.199 31.226 -5.55112e-17
609 1 78.2152 89.2214 -5.55112e-17
610 2 105.655 200.316 -5.55112e-17
611 1 1.57603 165.53 -5.55112e-17
612 1 207.154 117.643 -5.55112e-17
613 2 213.781 156.552 -5.55112e-17
614 1 202.122 30.5797 -5.55112e-17
615 1 152.284 104.374 -5.55112e-17
616 2 146.081 178.13 -5.55112e-17
617 1 168.553 1.03136 -5.55112e-17
618 1 137.311 216.443 -5.55112e-17
619 1 164.442 160.878 -5.55112e-17
620 2 42.9597 88.8143 -5.55112e-17
621 2 203.762 76.9431 -5.55112e-17
622 2 144.808 154.658 -5.55112e-17
623 2 108.696 147.163 -5.55112e-17
624 1 106.598 177.207 -5.55112e-17
625 2 208.498 79.7436 -5.55112e-17
626 1 211.207 190.091 -5.55112e-17
627 2 195.245 192.889 -5.55112e-17
628 1 116.573 156.046 -5.55112e-17
629 1 29.9247 41.4694 -5.55112e-17
630 2 133.53 213.885 -5.55112e-17
631 2 145.116 115.823 -5.55112e-17
632 2 209.106 19.972 -5.55112e-17
633 2 60.8098 131.387 -5.55112e-17
634 2 192.028 67.8777 -5.55112e-17
635 2 80.2179 72.3892 -5.55112e-17
636 1 88.2872 130.743 -5.55112e-17
637 1 217.336 152.673 -5.55112e-17
638 1 116.85 69.343 -5.55112e-17
639 2 200.886 65.0556 -5.55112e-17
640 2 149.448 78.1019 -5.55112e-17
641 1 200.047 96.5726 -5.55112e-17
642 2 162.209 35.6744 -5.55112e-17
643 1 165.321 57.7532 -5.55112e-17
644 2 139.234 155.211 -5.55112e-17
645 2 5.51947 75.483 -5.55112e-17
646 1 169.632 142.889 -5.55112e-17
647 2 129.44 148.223 -5.55112e-17
648 2 190.512 211.672 -5.55112e-17
649 1 63.5535 145.175 -5.55112e-17
650 1 55.9858 152.951 -5.55112e-17
651 1 112.21 131.138 -5.55112e-17
652 2 8.52583 213.88 -5.55112e-17
653 2 195.213 45.1408 -5.55112e-17
654 1 208.515 164.803 -5.55112e-17
655 1 63.7221 47.3145 -5.55112e-17
656 1 199.238 10.1585 -5.55112e-17
657 1 125.06 120.803 -5.55112e-17
658 2 165.899 106.044 -5.55112e-17
659 2 101.314 137.353 -5.55112e-17
660 1 25.2515 12.3534 -5.55112e-17
661 2 15.2104 36.9732 -5.55112e-17
662 2 136.128 117.27 -5.55112e-17
663 1 163.371 113.34 -5.55112e-17
664 1 80.276 138.18 -5.55112e-17
665 1 135.831 144.252 -5.55112e-17
666 1 202.843 185.328 -5.55112e-17
667 1 0.611283 116.788 -5.55112e-17
668 1 134.164 157.229 -5.55112e-17
669 1 107.026 160.996 -5.55112e-17
670 2 212.13 161.085 -5.55112e-17
671 1 3.44819 16.1345 -5.55112e-17
672 1 193.846 141.733 -5.55112e-17
673 2 47.3243 84.4331 -5.55112e-17
674 2 182.435 205.628 -5.55112e-17
675 2 152.239 2.21373 -5.55112e-17
676 1 181.11 159.701 -5.55112e-17
677 2 53.2661 52.9065 -5.55112e-17
678 1 86.8381 113.199 -5.55112e-17
679 1 86.7536 65.0045 -5.55112e-17
680 2 71.7916 13.6896 -5.55112e-17
681 1 5.26451 9.14403 -5.55112e-17
682 1 141.583 171.799 -5.55112e-17
683 2 96.1857 123.246 -5.55112e-17
684 1 23.1837 180.346 -5.55112e-17
685 1 83.6573 206.383 -5.55112e-17
686 1 142.788 159.807 -5.55112e-17
687 1 107.532 53.3169 -5.55112e-17
688 1 151.925 97.2676 -5.55112e-17
689 2 10.9751 139.385 -5.55112e-17
690 1 48.8038 120.536 -5.55112e-17
691 2 64.9234 114.658 -5.55112e-17
692 2 180.848 178.952 -5.55112e-17
693 1 161.518 96.1348 -5.55112e-17
694 2 146.954 149.56 -5.55112e-17
695 2 187.747 35.8676 -5.55112e-17
696 2 31.6448 82.2263 -5.55112e-17
697 1 104.208 35.6106 -5.55112e-17
698 2 40.8523 18.331 -5.55112e-17
699 1 56.9191 202.608 -5.55112e-17
700 2 17.9478 126.266 -5.55112e-17
701 2 30.7838 63.4376 -5.55112e-17
702 1 160.379 9.73351 -5.55112e-17
703 1 195.798 60.8725 -5.55112e-17
704 1 159.871 122.156 -5.55112e-17
705 1 43.8319 120.08 -5.55112e-17
706 1 75.5007 160.982 -5.55112e-17
707 1 182.188 66.9654 -5.55112e-17
708 2 195.396 101.709 -5.55112e-17
709 1 54.2131 160.184 -5.55112e-17
710 2 91.849 16.1778 -5.55112e-17
711 2 1.74494 139.329 -5.55112e-17
712 1 84.0812 213.844 -5.55112e-17
713 1 5.22478 152.126 -5.55112e-17
714 2 144.921 147.366 -5.55112e-17
715 2 132.996 87.2001 -5.55112e-17
716 1 88.8163 59.8024 -5.55112e-17
717 1 14.7455 61.3589 -5.55112e-17
718 2 78.7187 99.3253 -5.55112e-17
719 1 68.4278 202.914 -5.55112e-17
720 2 51.7721 197.13 -5.55112e-17
721 2 44.2035 213.212 -5.55112e-17
722 2 65.4966 138.141 -5.55112e-17
723 2 15.5533 165.458 -5.55112e-17
724 2 202.506 107.268 -5.55112e-17
725 2 21.3867 49.8988 -5.55112e-17
726 2 178.147 124.281 -5.55112e-17
727 2 35.6088 109.384 -5.55112e-17
728 1 176.524 77.1783 -5.55112e-17
729 2 167.504 131.755 -5.55112e-17
730 2 175.299 94.719 -5.55112e-17
731 1 9.7878 23.3428 -5.55112e-17
732 2 98.255 87.4635 -5.55112e-17
733 2 147.775 146.674 -5.55112e-17
734 2 58.9241 191.685 -5.55112e-17
735 2 148.619 72.0132 -5.55112e-17
736 1 182.3 176.646 -5.55112e-17
737 2 48.7681 39.5231 -5.55112e-17
738 2 71.151 207.543 -5.55112e-17
739 2 186.03 131.5 -5.55112e-17
740 2 40.729 115.425 -5.55112e-17
741 2 200.795 113.865 -5.55112e-17
742 1 71.7826 98.4678 -5.55112e-17
743 2 78.658 75.8297 -5.55112e-17
744 1 146.717 50.6702 -5.55112e-17
745 2 15.7398 75.7019 -5.55112e-17
746 1 218.968 121.386 -5.55112e-17
747 1 98.0903 163.268 -5.55112e-17
748 2 69.8704 197.818 -5.55112e-17
749 1 213.567 166.133 -5.55112e-17
750 1 139.496 148.024 -5.55112e-17
751 1 142.96 89.0461 -5.55112e-17
752 2 195.197 168.666 -5.55112e-17
753 1 36.9969 180.638 -5.55112e-17
754 2 65.9982 80.6928 -5.55112e-17
755 1 6.3709 80.5531 -5.55112e-17
756 2 178.42 58.5106 -5.55112e-17
757 1 111.09 15.027 -5.55112e-17
758 2 99.8087 27.8883 -5.55112e-17
759 1 95.5671 133.451 -5.55112e-17
760 1 170.937 61.9854 -5.55112e-17
761 2 212.796 101.285 -5.55112e-17
762 1 178.425 106.276 -5.55112e-17
763 2 6.13775 157.586 -5.55112e-17
764 2 43.1994 188.01 -5.55112e-17
765 1 21.96 160.015 -5.55112e-17
766 2 100.187 47.9579 -5.55112e-17
767 2 206.445 148.978 -5.55112e-17
768 2 72.1127 61.7803 -5.55112e-17
769 2 188.202 98.3753 -5.55112e-17
770 1 133.989 18.6631 -5.55112e-17
771 1 64.5451 63.3286 -5.55112e-17
772 1 129.104 0.904224 -5.55112e-17
773 2 167.053 172.33 -5.55112e-17
774 1 88.4816 87.3083 -5.55112e-17
775 1 102.641 76.1872 -5.55112e-17
776 2 192.586 103.51 -5.55112e-17
777 2 42.223 79.8969 -5.55112e-17
778 1 83.4237 12.8568 -5.55112e-17
779 1 47.901 60.9777 -5.55112e-17
780 2 83.3862 49.7943 -5.55112e-17
781 1 25.9677 171.392 -5.55112e-17
782 2 122.923 170.35 -5.55112e-17
783 1 74.4931 62.7998 -5.55112e-17
784 2 97.0918 110.556 -5.55112e-17
785 1 204.572 82.4577 -5.55112e-17
786 1 41.234 7.07291 -5.55112e-17
787 2 38.4909 208.66 -5.55112e-17
788 2 164.789 180.735 -5.55112e-17
789 2 18.291 146.797 -5.55112e-17
790 2 77.6985 8.50547 -5.55112e-17
791 2 186.296 54.347 -5.55112e-17
792 1 213.263 132.543 -5.55112e-17
793 1 96.9515 171.788 -5.55112e-17
794 2 209.865 6.41758 -5.55112e-17
795 2 10.9852 191.396 -5.55112e-17
796 1 69.0913 215.254 -5.55112e-17
797 1 46.1999 32.5118 -5.55112e-17
798 1 213.456 55.9506 -5.55112e-17
799 2 105.74 155.748 -5.55112e-17
800 1 56.9725 36.7781 -5.55112e-17
801 2 68.4337 84.5574 -5.55112e-17
802 1 91.0461 216.459 -5.55112e-17
803 1 143.214 25.3166 -5.55112e-17
804 1 210.226 124.69 -5.55112e-17
805 2 183.332 118.07 -5.55112e-17
806 2 178.683 158.472 -5.55112e-17
807 2 207.657 29.3558 -5.55112e-17
808 2 76.223 144.184 -5.55112e-17
809 1 175.971 63.4973 -5.55112e-17
810 2 23.9493 173.655 -5.55112e-17
811 2 179.976 56.009 -5.55112e-17
812 1 121.524 185.008 -5.55112e-17
813 1 21.9879 95.7296 -5.55112e-17
814 1 2.99188 204.53 -5.55112e-17
815 1 146.08 32.4367 -5.55112e-17
816 1 206.621 51.0455 -5.55112e-17
817 2 62.8093 70.7938 -5.55112e-17
818 2 29.7983 122.972 -5.55112e-17
819 2 210.964 68.129 -5.55112e-17
820 1 9.61265 58.7396 -5.55112e-17
821 1 64.9869 57.8155 -5.55112e-17
822 2 131.826 34.7694 -5.55112e-17
823 1 184.078 90.1969 -5.55112e-17
824 1 175.847 90.43 -5.55112e-17
825 1 160.21 191.006 -5.55112e-17
826 2 178.385 82.0579 -5.55112e-17
827 2 102.85 27.0988 -5.55112e-17
828 1 50.6919 91.1044 -5.55112e-17
829 2 127.912 92.786 -5.55112e-17
830 1 3.81022 156.707 -5.55112e-17
831 2 183.265 217.763 -5.55112e-17
832 2 26.7755 52.1836 -5.55112e-17
833 2 96.6877 42.1541 -5.55112e-17
834 1 70.8178 163.629 -5.55112e-17
835 1 185.076 141.599 -5.55112e-17
836 1 152.945 69.7711 -5.55112e-17
837 2 167.878 92.4646 -5.55112e-17
838 2 92.1044 26.3679 -5.55112e-17
839 1 39.1222 32.1238 -5.55112e-17
840 2 13.8509 117.153 -5.55112e-17
841 2 201.822 10.1929 -5.55112e-17
842 1 174.399 157.288 -5.55112e-17
843 1 204.861 29.7317 -5.55112e-17
844 2 8.36197 25.4869 -5.55112e-17
845 1 46.7657 150.781 -5.55112e-17
846 2 127.379 211.486 -5.55112e-17
847 1 88.4669 143.22 -5.55112e-17
848 2 112.74 8.71521 -5.55112e-17
849 1 24.6887 33.1453 -5.55112e-17
850 2 59.9592 67.2849 -5.55112e-17
851 2 216.032 30.5126 -5.55112e-17
852 1 137.107 182.996 -5.55112e-17
853 1 186.079 105.113 -5.55112e-17
854 2 104.102 144.92 -5.55112e-17
855 2 165.823 121.037 -5.55112e-17
856 1 77.7666 159.727 -5.55112e-17