ITEM: TIMESTEP
0
ITEM: NUMBER OF ATOMS
7200
ITEM: BOX BOUNDS xy xz yz pp pp pp
0.0000000000000000e+00 2.1900000000000000e+02 0.0000000000000000e+00
0.0000000000000000e+00 2.1900000000000000e+02 0.0000000000000000e+00
-3.6499999999999999e-01 3.6499999999999999e-01 0.0000000000000000e+00
ITEM: ATOMS id type x y z
1 1 183.31 13.0941 -5.55112e-17
2 2 187.847 183.582 -5.55112e-17
3 2 144.723 189.496 -5.55112e-17
4 1 123.057 110.154 -5.55112e-17
5 1 101.444 122.471 -5.55112e-17
6 1 104.643 25.1525 -5.55112e-17
7 2 158.722 129.259 -5.55112e-17
8 2 70.2101 25.4783 -5.55112e-17
9 1 22.2835 215.28 -5.55112e-17
10 2 52.5119 166.673 -5.55112e-17
11 2 210.142 100.532 -5.55112e-17
12 1 33.783 197.665 -5.55112e-17
13 2 194.615 53.897 -5.55112e-17
14 1 57.8632 184.516 -5.55112e-17
15 2 193.768 0.0974216 -5.55112e-17
16 2 218.314 85.9646 -5.55112e-17
17 1 67.4765 74.0241 -5.55112e-17
18 2 10.6854 172.351 -5.55112e-17
19 1 92.9735 129.829 -5.55112e-17
20 1 72.71 10.6755 -5.55112e-17
21 1 156.929 7.91368 -5.55112e-17
22 2 31.985 212.56 -5.55112e-17
23 2 43.691 207.849 -5.55112e-17
24 2 218.44 103.245 -5.55112e-17
25 2 30.6617 207.71 -5.55112e-17
26 2 149.441 28.3374 -5.55112e-17
27 1 217.457 162.645 -5.55112e-17
28 2 54.0906 154.28 -5.55112e-17
29 2 84.1269 3.82764 -5.55112e-17
30 2 132.283 37.8034 -5.55112e-17
31 2 156.656 84.0833 -5.55112e-17
32 1 48.0608 108.468 -5.55112e-17
33 2 145.206 87.4194 -5.55112e-17
34 2 16.0672 95.9842 -5.55112e-17
35 2 127.412 11.5863 -5.55112e-17
36 1 160.095 146.874 -5.55112e-17
37 1 133.193 185.053 -5.55112e-17
38 2 209.305 158.08 -5.55112e-17
39 1 7.82422 38.2894 -5.55112e-17
40 2 196.654 74.1443 -5.55112e-17
41 1 192.987 73.5721 -5.55112e-17
42 1 55.0959 58.6109 -5.55112e-17
43 1 210.156 132.507 -5.55112e-17
44 1 155.173 188.83 -5.55112e-17
45 2 159.454 61.2691 -5.55112e-17
46 1 124.372 192.609 -5.55112e-17
47 2 89.2169 80.2364 -5.55112e-17
48 2 150.549 129.755 -5.55112e-17
49 1 194.34 200.031 -5.55112e-17
50 2 29.2459 47.476 -5.55112e-17
51 1 186.743 3.26325 -5.55112e-17
52 1 115.616 48.1067 -5.55112e-17
53 2 55.3662 200.919 -5.55112e-17
54 1 39.4015 16.7223 -5.55112e-17
55 2 53.1686 141.024 -5.55112e-17
56 1 30.976 132.383 -5.55112e-17
57 2 58.0738 133.274 -5.55112e-17
58 1 185.27 36.1012 -5.55112e-17
59 1 157.543 86.6645 -5.55112e-17
60 2 206.373 59.6267 -5.55112e-17
61 1 157.068 164.408 -5.55112e-17
62 1 106.528 111.278 -5.55112e-17
63 2 108.939 38.8565 -5.55112e-17
64 1 28.3774 17.8385 -5.55112e-17
65 2 152.138 149.218 -5.55112e-17
66 2 13.2176 154.679 -5.55112e-17
67 2 182.629 108.066 -5.55112e-17
68 1 136.61 83.5385 -5.55112e-17
69 2 109.327 168.766 -5.55112e-17
70 1 141.396 98.1149 -5.55112e-17
71 1 198.177 148.087 -5.55112e-17
72 2 44.7603 157.385 -5.55112e-17
73 2 191.305 179.642 -5.55112e-17
74 2 110.776 67.0249 -5.55112e-17
75 1 14.6569 136.672 -5.55112e-17
76 2 137.784 206.762 -5.55112e-17
77 2 168.982 15.7997 -5.55112e-17
78 1 93.4614 208.082 -5.55112e-17
79 2 60.4687 75.6065 -5.55112e-17
80 1 50.1893 22.9832 -5.55112e-17
81 1 181.816 211.322 -5.55112e-17
82 1 172.712 39.1153 -5.55112e-17
83 1 71.068 90.921 -5.55112e-17
84 2 140.741 179.608 -5.55112e-17
85 2 151.084 146.306 -5.55112e-17
86 2 51.0531 67.4847 -5.55112e-17
87 2 38.6469 75.2637 -5.55112e-17
88 1 80.051 157.259 -5.55112e-17
89 2 199.661 105.918 -5.55112e-17
90 2 126.22 36.441 -5.55112e-17
91 2 11.3866 182.345 -5.55112e-17
92 1 27.9312 215.348 -5.55112e-17
93 2 109.801 154.551 -5.55112e-17
94 2 112.651 144.35 -5.55112e-17
95 1 211.641 51.7581 -5.55112e-17
96 2 32.0672 53.9897 -5.55112e-17
97 2 4.83931 211.763 -5.55112e-17
98 2 35.9279 185.323 -5.55112e-17
99 1 105.201 9.79328 -5.55112e-17
100 2 159.036 66.0557 -5.55112e-17
101 1 183.957 110.51 -5.55112e-17
102 1 66.2186 163.616 -5.55112e-17
103 2 204.779 100.344 -5.55112e-17
104 2 104.26 73.2565 -5.55112e-17
105 1 160.782 58.8654 -5.55112e-17
106 1 185.346 61.1892 -5.55112e-17
107 1 11.8285 106.876 -5.55112e-17
108 1 70.2609 209.708 -5.55112e-17
109 2 217.514 39.2088 -5.55112e-17
110 2 145.127 29.9241 -5.55112e-17
111 1 52.7724 92.1346 -5.55112e-17
112 2 8.64889 50.9278 -5.55112e-17
113 1 135.277 11.1754 -5.55112e-17
114 1 92.2757 86.4442 -5.55112e-17
115 2 32.4723 59.4475 -5.55112e-17
116 2 184.221 15.6094 -5.55112e-17
117 1 162.954 110.972 -5.55112e-17
118 1 82.4045 94.1455 -5.55112e-17
119 2 99.0585 139.344 -5.55112e-17
120 2 200.865 58.634 -5.55112e-17
121 1 205.114 139.182 -5.55112e-17
122 2 143.113 130.207 -5.55112e-17
123 2 6.58467 129.606 -5.55112e-17
124 1 161.654 200.595 -5.55112e-17
125 1 88.5494 192.493 -5.55112e-17
126 2 97.6072 84.3425 -5.55112e-17
127 2 208.626 110.966 -5.55112e-17
128 1 121.722 105.269 -5.55112e-17
129 1 144.232 194.875 -5.55112e-17
130 2 119.991 61.4927 -5.55112e-17
131 1 133.79 60.2551 -5.55112e-17
132 1 139.771 22.0811 -5.55112e-17
133 1 180.79 105.941 -5.55112e-17
134 1 81.8297 191.096 -5.55112e-17
135 2 177.518 61.214 -5.55112e-17
136 1 190.297 119.242 -5.55112e-17
137 1 60.805 7.05959 -5.55112e-17
138 2 156.029 159.076 -5.55112e-17
139 1 133.015 12.0613 -5.55112e-17
140 1 145.046 208.91 -5.55112e-17
141 1 50.9838 70.1451 -5.55112e-17
142 1 213.244 190.826 -5.55112e-17
143 1 26.0109 26.1929 -5.55112e-17
144 1 46.3381 97.2877 -5.55112e-17
145 2 193.092 80.4856 -5.55112e-17
146 1 153.579 126.187 -5.55112e-17
147 2 16.401 134.484 -5.55112e-17
148 1 24.3853 133.172 -5.55112e-17
149 1 147.38 190.316 -5.55112e-17
150 2 66.1389 51.827 -5.55112e-17
151 1 132.343 138.055 -5.55112e-17
152 1 163.912 163.621 -5.55112e-17
153 2 123.91 130.522 -5.55112e-17
154 1 185.384 54.186 -5.55112e-17
155 2 203.225 40.1369 -5.55112e-17
156 2 109.287 197.221 -5.55112e-17
157 2 166.385 29.1311 -5.55112e-17
158 2 28.2352 7.7874 -5.55112e-17
159 2 12.0299 158.893 -5.55112e-17
160 2 120.716 55.0082 -5.55112e-17
161 2 129.735 138.925 -5.55112e-17
162 1 23.8862 66.3557 -5.55112e-17
163 1 188.863 34.1315 -5.55112e-17
164 2 108.388 134.678 -5.55112e-17
165 1 48.8958 71.9726 -5.55112e-17
166 2 6.41323 199.777 -5.55112e-17
167 1 106.646 167.928 -5.55112e-17
168 1 211.233 103.243 -5.55112e-17
169 2 98.5064 199.234 -5.55112e-17
170 1 66.452 206.149 -5.55112e-17
171 1 137.264 92.3857 -5.55112e-17
172 1 199.447 199.975 -5.55112e-17
173 1 39.5387 203.632 -5.55112e-17
174 2 38.2651 173.37 -5.55112e-17
175 2 50.4104 199.467 -5.55112e-17
176 1 119.341 151.724 -5.55112e-17
177 2 105.21 15.3932 -5.55112e-17
178 1 25.6114 7.52354 -5.55112e-17
179 2 106.355 197.304 -5.55112e-17
180 1 47.1323 76.1745 -5.55112e-17
181 1 16.027 119.109 -5.55112e-17
182 1 113.798 86.7385 -5.55112e-17
183 1 64.0851 168.097 -5.55112e-17
184 2 157.672 25.9255 -5.55112e-17
185 2 190.21 79.0768 -5.55112e-17
186 2 74.3403 205.978 -5.55112e-17
187 2 159.163 202.055 -5.55112e-17
188 2 60.7606 28.0482 -5.55112e-17
189 1 191.54 58.0165 -5.55112e-17
190 1 196.378 55.6463 -5.55112e-17
191 2 35.2714 104.435 -5.55112e-17
192 2 91.0463 61.0931 -5.55112e-17
193 1 108.287 165.98 -5.55112e-17
194 1 27.1303 5.48636 -5.55112e-17
195 2 58.3542 119.637 -5.55112e-17
196 1 0.33359 218.863 -5.55112e-17
197 2 119.241 50.7647 -5.55112e-17
198 2 205.848 27.3623 -5.55112e-17
199 2 99.9344 171.103 -5.55112e-17
200 2 98.8048 30.8639 -5.55112e-17
201 2 103.144 120.573 -5.55112e-17
202 1 44.0006 33.6497 -5.55112e-17
203 1 18.5287 42.9017 -5.55112e-17
204 2 45.332 78.4093 -5.55112e-17
205 2 182.698 182.432 -5.55112e-17
206 2 170.554 127.968 -5.55112e-17
207 1 74.841 188.93 -5.55112e-17
208 2 135.404 54.6994 -5.55112e-17
209 2 33.3365 142.336 -5.55112e-17
210 1 182.104 112.886 -5.55112e-17
211 1 208.442 35.6401 -5.55112e-17
212 1 208.327 85.2338 -5.55112e-17
213 1 128.14 123.798 -5.55112e-17
214 2 12.1618 11.3632 -5.55112e-17
215 1 5.53313 142.47 -5.55112e-17
216 1 55.2138 46.2231 -5.55112e-17
217 1 164.29 62.0551 -5.55112e-17
218 2 200.938 121.51 -5.55112e-17
219 2 136.589 189.883 -5.55112e-17
220 1 121.118 1.24375 -5.55112e-17
221 2 83.2484 6.71841 -5.55112e-17
222 1 158.133 157.604 -5.55112e-17
223 1 45.8856 120.338 -5.55112e-17
224 2 145.946 71.1215 -5.55112e-17
225 2 168.927 163.832 -5.55112e-17
226 1 196.759 10.5067 -5.55112e-17
227 2 203.663 214.786 -5.55112e-17
228 2 117.467 63.4341 -5.55112e-17
229 1 47.5368 22.5918 -5.55112e-17
230 1 4.94482 56.6307 -5.55112e-17
231 2 137.304 160.628 -5.55112e-17
232 1 18.66 212.99 -5.55112e-17
233 2 76.167 195.138 -5.55112e-17
234 1 0.60549 59.8152 -5.55112e-17
235 1 149.926 106.294 -5.55112e-17
236 2 153.326 53.4317 -5.55112e-17
237 2 99.5935 204.118 -5.55112e-17
238 2 94.8048 140.307 -5.55112e-17
239 1 35.4903 217.045 -5.55112e-17
240 1 129.872 90.7075 -5.55112e-17
241 2 3.38098 124.643 -5.55112e-17
242 1 194.067 28.5544 -5.55112e-17
243 2 214.873 130.419 -5.55112e-17
244 2 35.7022 190.968 -5.55112e-17
245 1 174.472 21.5122 -5.55112e-17
246 2 90.0464 85.0552 -5.55112e-17
247 2 198.749 150.812 -5.55112e-17
248 1 37.9001 26.8495 -5.55112e-17
249 1 131.7 108.246 -5.55112e-17
250 1 134.99 28.1745 -5.55112e-17
251 2 102.242 43.1786 -5.55112e-17
252 1 110.762 157.061 -5.55112e-17
253 2 95.7135 97.4651 -5.55112e-17
254 2 179.313 205.139 -5.55112e-17
255 2 122.628 50.6389 -5.55112e-17
256 1 3.2737 180.114 -5.55112e-17
257 2 32.4303 195.103 -5.55112e-17
258 1 210.864 81.6924 -5.55112e-17
259 2 160.785 141.769 -5.55112e-17
260 1 40.1781 192.785 -5.55112e-17
261 2 142.628 177.302 -5.55112e-17
262 2 186.834 110.81 -5.55112e-17
263 2 93.8662 172.108 -5.55112e-17
264 1 199.023 36.5762 -5.55112e-17
265 1 157.346 187.291 -5.55112e-17
266 1 98.826 196.71 -5.55112e-17
267 2 115.743 16.6662 -5.55112e-17
268 1 218.685 49.0743 -5.55112e-17
269 2 9.9711 113.495 -5.55112e-17
270 2 185.774 148.998 -5.55112e-17
271 2 187.493 95.189 -5.55112e-17
272 1 59.3683 25.7931 -5.55112e-17
273 1 70.372 82.8942 -5.55112e-17
274 1 37.9159 196.314 -5.55112e-17
275 1 146.401 110.196 -5.55112e-17
276 1 199.302 75.1459 -5.55112e-17
277 1 100.731 37.397 -5.55112e-17
278 2 60.4566 144.857 -5.55112e-17
279 2 160.016 87.0492 -5.55112e-17
280 1 117.103 210.955 -5.55112e-17
281 2 169.616 182.466 -5.55112e-17
282 2 75.4779 127.171 -5.55112e-17
283 2 218.914 151.06 -5.55112e-17
284 1 125.956 113.502 -5.55112e-17
285 1 72.9512 165.105 -5.55112e-17
286 2 30.2551 180.253 -5.55112e-17
287 2 93.2614 109.913 -5.55112e-17
288 1 104.07 123.197 -5.55112e-17
289 2 193.861 56.6932 -5.55112e-17
290 1 101.48 29.5439 -5.55112e-17
291 2 96.2038 185.757 -5.55112e-17
292 1 77.2316 125.217 -5.55112e-17
293 1 158.876 168.266 -5.55112e-17
294 1 29.8433 177.641 -5.55112e-17
295 2 46.5696 145.255 -5.55112e-17
296 1 196.763 176.897 -5.55112e-17
297 1 2.33654 18.3611 -5.55112e-17
298 2 30.5775 140.806 -5.55112e-17
299 1 177.487 56.1771 -5.55112e-17
300 2 190.099 192.79 -5.55112e-17
301 2 172.399 19.5245 -5.55112e-17
302 2 163.499 89.6512 -5.55112e-17
303 1 2.33715 151.755 -5.55112e-17
304 1 124.282 105.786 -5.55112e-17
305 1 92.1848 177.051 -5.55112e-17
306 2 83.9148 17.5738 -5.55112e-17
307 2 150.409 167.83 -5.55112e-17
308 2 142.411 22.7144 -5.55112e-17
309 1 70.6601 71.5558 -5.55112e-17
310 1 190.391 190.267 -5.55112e-17
311 1 150.687 108.997 -5.55112e-17
312 2 135.069 13.7754 -5.55112e-17
313 2 155.355 18.1621 -5.55112e-17
314 1 184.377 58.7945 -5.55112e-17
315 2 56.5216 107.234 -5.55112e-17
316 1 96.0577 30.8132 -5.55112e-17
317 1 132.899 175.872 -5.55112e-17
318 1 216.448 135.817 -5.55112e-17
319 2 74.6452 200.478 -5.55112e-17
320 1 214.165 47.95 -5.55112e-17
321 1 52.3507 87.0541 -5.55112e-17
322 1 51.0024 147.627 -5.55112e-17
323 2 19.9309 138.564 -5.55112e-17
324 2 7.69537 95.4562 -5.55112e-17
325 2 216.363 13.5723 -5.55112e-17
326 1 185.331 1.13857 -5.55112e-17
327 1 36.0726 45.8267 -5.55112e-17
328 2 32.7538 192.164 -5.55112e-17
329 2 28.3474 82.9366 -5.55112e-17
330 2 153.54 39.2172 -5.55112e-17
331 2 188.142 68.2312 -5.55112e-17
332 2 121.428 114.483 -5.55112e-17
333 2 27.9739 151.203 -5.55112e-17
334 2 215.861 17.9288 -5.55112e-17
335 1 167.254 211.423 -5.55112e-17
336 2 27.6892 141.796 -5.55112e-17
337 2 40.9332 9.67332 -5.55112e-17
338 1 203.12 90.8627 -5.55112e-17
339 2 15.1313 152.187 -5.55112e-17
340 2 177.131 214.308 -5.55112e-17
341 2 101.388 60.2655 -5.55112e-17
342 2 173.245 166.513 -5.55112e-17
343 2 176.531 5.28152 -5.55112e-17
344 1 88.1617 105.28 -5.55112e-17
345 2 26.9813 212.959 -5.55112e-17
346 2 75.284 72.5955 -5.55112e-17
347 1 147.745 98.9745 -5.55112e-17
348 1 181.745 3.99526 -5.55112e-17
349 2 173.437 70.7836 -5.55112e-17
350 2 77.9922 178.651 -5.55112e-17
351 1 174.406 141.116 -5.55112e-17
352 1 212.913 163.772 -5.55112e-17
353 2 140.697 132.15 -5.55112e-17
354 2 191.522 176.479 -5.55112e-17
355 1 215.925 157.368 -5.55112e-17
356 2 115.2 1.79473 -5.55112e-17
357 1 127.061 192.453 -5.55112e-17
358 1 78.0214 25.5344 -5.55112e-17
359 1 34.7229 144.498 -5.55112e-17
360 1 51.2985 7.88522 -5.55112e-17
361 2 196.833 69.1321 -5.55112e-17
362 2 172.268 94.9436 -5.55112e-17
363 1 79.1853 214.973 -5.55112e-17
364 2 216.997 46.816 -5.55112e-17
365 1 5.94388 164.327 -5.55112e-17
366 1 82.6038 172.443 -5.55112e-17
367 1 160.954 104.455 -5.55112e-17
368 1 20.889 164.227 -5.55112e-17
369 2 81.3565 143.303 -5.55112e-17
370 1 6.56106 132.204 -5.55112e-17
371 2 71.4612 111.15 -5.55112e-17
372 1 88.0319 6.77221 -5.55112e-17
373 2 118.138 208.59 -5.55112e-17
374 2 176.867 101.873 -5.55112e-17
375 1 136.493 26.2441 -5.55112e-17
376 1 121.44 147.498 -5.55112e-17
377 2 95.1609 76.2769 -5.55112e-17
378 2 215.262 107.06 -5.55112e-17
379 2 169.257 187.418 -5.55112e-17
380 1 199.657 34.1467 -5.55112e-17
381 1 175.162 68.2707 -5.55112e-17
382 1 122.839 27.1143 -5.55112e-17
383 1 110.035 83.3304 -5.55112e-17
384 2 53.8624 100.685 -5.55112e-17
385 1 65.8035 148.452 -5.55112e-17
386 2 179.743 175.749 -5.55112e-17
387 1 34.3851 107.019 -5.55112e-17
388 1 143.742 164.211 -5.55112e-17
389 2 215.861 121.66 -5.55112e-17
390 1 104.854 66.0208 -5.55112e-17
391 1 203.605 217.423 -5.55112e-17
392 2 3.97 100.621 -5.55112e-17
393 2 192.418 173.697 -5.55112e-17
394 1 36.7992 203.745 -5.55112e-17
395 1 19.735 215.108 -5.55112e-17
396 2 75.3049 87.9684 -5.55112e-17
397 1 67.8467 41.9066 -5.55112e-17
398 2 165.471 111.085 -5.55112e-17
399 2 196.854 107.06 -5.55112e-17
400 2 123.513 69.0364 -5.55112e-17
401 2 84.3932 190.207 -5.55112e-17
402 1 84.6021 42.4768 -5.55112e-17
403 1 69.6643 116.325 -5.55112e-17
404 2 113.013 13.8383 -5.55112e-17
405 1 49.6216 196.871 -5.55112e-17
406 2 216.816 95.8837 -5.55112e-17
407 1 123.729 78.9226 -5.55112e-17
408 1 130.517 29.4998 -5.55112e-17
409 2 214.247 116.362 -5.55112e-17
410 2 70.5459 158.457 -5.55112e-17
411 1 136.061 96.9253 -5.55112e-17
412 1 164.575 7.17274 -5.55112e-17
413 1 34.6657 85.463 -5.55112e-17
414 2 193.28 202.617 -5.55112e-17
415 1 107.395 126.514 -5.55112e-17
416 1 176.085 52.1211 -5.55112e-17
417 2 107.932 129.283 -5.55112e-17
418 2 34.6916 179.676 -5.55112e-17
419 2 195.08 92.2999 -5.55112e-17
420 2 108.877 44.4364 -5.55112e-17
421 1 70.4423 30.6489 -5.55112e-17
422 1 34.6831 58.069 -5.55112e-17
423 2 116.429 124.811 -5.55112e-17
424 2 39.1302 24.4963 -5.55112e-17
425 2 116.898 150.812 -5.55112e-17
426 1 185.601 97.1679 -5.55112e-17
427 2 74.7963 60.066 -5.55112e-17
428 1 29.3067 174.931 -5.55112e-17
429 2 131.115 149.828 -5.55112e-17
430 2 111.793 104.014 -5.55112e-17
431 1 13.5292 9.03783 -5.55112e-17
432 2 174.166 3.38709 -5.55112e-17
433 1 186.684 198.76 -5.55112e-17
434 1 20.4525 205.341 -5.55112e-17
435 1 149.736 85.6108 -5.55112e-17
436 2 85.6811 198.077 -5.55112e-17
437 2 181.119 82.7239 -5.55112e-17
438 2 194.062 177.657 -5.55112e-17
439 2 93.0803 9.90945 -5.55112e-17
440 2 201.047 92.2572 -5.55112e-17
441 1 131.015 167.418 -5.55112e-17
442 1 37.723 104.382 -5.55112e-17
443 2 79.0405 81.7706 -5.55112e-17
444 1 204.382 105.027 -5.55112e-17
445 1 168.955 133.689 -5.55112e-17
446 2 183.222 150.816 -5.55112e-17
447 2 40.0056 39.7538 -5.55112e-17
448 2 205.784 176.173 -5.55112e-17
449 1 41.4348 177.506 -5.55112e-17
450 1 10.5278 126.316 -5.55112e-17
451 1 54.5936 208.855 -5.55112e-17
452 2 208.693 61.0943 -5.55112e-17
453 1 216.361 150.337 -5.55112e-17
454 1 3.22112 69.0023 -5.55112e-17
455 2 81.1156 131.005 -5.55112e-17
456 1 85.1298 1.29441 -5.55112e-17
457 2 140.292 145.241 -5.55112e-17
458 2 155.551 135.915 -5.55112e-17
459 2 133.494 51.9484 -5.55112e-17
460 1 197.133 170.019 -5.55112e-17
461 1 111.978 128.329 -5.55112e-17
462 1 103.915 196.266 -5.55112e-17
463 2 110.344 218.584 -5.55112e-17
464 2 13.7121 77.8512 -5.55112e-17
465 1 123.849 16.1084 -5.55112e-17
466 2 150.534 126.541 -5.55112e-17
467 2 65.781 132.88 -5.55112e-17
468 2 124.094 125.693 -5.55112e-17
469 2 58.0097 71.2206 -5.55112e-17
470 2 208.824 154.767 -5.55112e-17
471 2 212.345 211.595 -5.55112e-17
472 2 111.181 36.7258 -5.55112e-17
473 2 198.32 214.706 -5.55112e-17
474 2 84.5757 146.51 -5.55112e-17
475 1 163.907 182.911 -5.55112e-17
476 2 175.084 34.6138 -5.55112e-17
477 1 209.148 218.043 -5.55112e-17
478 1 46.3329 188.393 -5.55112e-17
479 2 1.24596 197.515 -5.55112e-17
480 1 82.6162 61.249 -5.55112e-17
481 1 3.12162 209.524 -5.55112e-17
482 2 152.408 176.881 -5.55112e-17
483 1 134.589 209.377 -5.55112e-17
484 1 65.7779 135.473 -5.55112e-17
485 2 13.5088 173.996 -5.55112e-17
486 1 132.905 72.7349 -5.55112e-17
487 1 13.7065 202.062 -5.55112e-17
488 1 49.9282 83.493 -5.55112e-17
489 1 70.139 108.732 -5.55112e-17
490 1 164.563 73.6028 -5.55112e-17
491 1 163.082 76.1083 -5.55112e-17
492 2 209.211 15.3318 -5.55112e-17
493 1 94.3192 203.333 -5.55112e-17
494 2 77.8771 66.0377 -5.55112e-17
495 1 150.038 92.4887 -5.55112e-17
496 1 51.9714 123.055 -5.55112e-17
497 1 136.826 110.152 -5.55112e-17
498 2 145.531 39.4476 -5.55112e-17
499 2 177.41 119.166 -5.55112e-17
500 2 57.6513 32.1666 -5.55112e-17
501 2 14.811 139.45 -5.55112e-17
502 2 190.302 127.039 -5.55112e-17
503 2 57.5975 63.1454 -5.55112e-17
504 2 98.1813 50.3982 -5.55112e-17
505 2 112.522 214.179 -5.55112e-17
506 1 207.104 6.22248 -5.55112e-17
507 2 49.8824 182.269 -5.55112e-17
508 1 140.771 59.538 -5.55112e-17
509 1 209.731 47.4669 -5.55112e-17
510 1 195.317 104.436 -5.55112e-17
511 2 108.58 179.153 -5.55112e-17
512 1 10.8504 42.9056 -5.55112e-17
513 2 87.9338 182.637 -5.55112e-17
514 2 15.1729 87.4223 -5.55112e-17
515 1 60.4789 98.2803 -5.55112e-17
516 2 101.082 73.9042 -5.55112e-17
517 1 32.3658 147.749 -5.55112e-17
518 2 10.7291 13.7948 -5.55112e-17
519 1 125.054 92.1798 -5.55112e-17
520 2 209.152 93.8483 -5.55112e-17
521 2 130.178 40.0593 -5.55112e-17
522 1 187.462 7.80302 -5.55112e-17
523 1 127.547 99.5349 -5.55112e-17
524 2 175.437 19.0497 -5.55112e-17
525 2 185.453 46.2668 -5.55112e-17
526 2 108.309 16.2569 -5.55112e-17
527 1 170.498 25.259 -5.55112e-17
528 1 213.28 201.773 -5.55112e-17
529 2 104.694 176.444 -5.55112e-17
530 2 18.3497 88.3758 -5.55112e-17
531 2 184.452 172.082 -5.55112e-17
532 1 81.3505 4.67022 -5.55112e-17
533 2 23.2814 158.051 -5.55112e-17
534 1 22.8444 168.279 -5.55112e-17
535 1 170.035 207.086 -5.55112e-17
536 2 18.0802 169.425 -5.55112e-17
537 1 142.532 29.6849 -5.55112e-17
538 1 68.3056 157.352 -5.55112e-17
539 2 80.8254 162.744 -5.55112e-17
540 1 35.2599 182.23 -5.55112e-17
541 1 105.48 128.323 -5.55112e-17
542 1 58.3057 126.436 -5.55112e-17
543 2 120.498 168.492 -5.55112e-17
544 1 218.113 211.486 -5.55112e-17
545 1 175.115 72.8055 -5.55112e-17
546 2 186.875 10.2919 -5.55112e-17
547 1 12.7091 71.8394 -5.55112e-17
548 1 29.8894 5.6401 -5.55112e-17
549 2 35.2396 152.544 -5.55112e-17
550 2 164.694 193.422 -5.55112e-17
551 2 39.4026 7.07499 -5.55112e-17
552 1 31.9303 51.4389 -5.55112e-17
553 2 207.336 196.717 -5.55112e-17
554 2 144.391 34.384 -5.55112e-17
555 2 178.094 134.998 -5.55112e-17
556 1 177.582 211.755 -5.55112e-17
557 1 211.266 54.3739 -5.55112e-17
558 1 59.9173 142.285 -5.55112e-17
559 2 106.392 91.1055 -5.55112e-17
560 2 57.2265 89.1268 -5.55112e-17
561 2 110.887 181.515 -5.55112e-17
562 2 98.0332 64.747 -5.55112e-17
563 1 73.0796 167.667 -5.55112e-17
564 2 103.363 78.5595 -5.55112e-17
565 2 33.4457 64.7474 -5.55112e-17
566 2 64.3762 59.9893 -5.55112e-17
567 1 95.0884 11.4569 -5.55112e-17
568 1 22.3935 77.9795 -5.55112e-17
569 2 141.691 194.784 -5.55112e-17
570 2 11.716 21.0819 -5.55112e-17
571 2 5.02415 61.9484 -5.55112e-17
572 1 115.409 107.719 -5.55112e-17
573 2 37.6655 89.4038 -5.55112e-17
574 2 178.792 170.683 -5.55112e-17
575 1 196.259 206.92 -5.55112e-17
576 1 25.588 68.3391 -5.55112e-17
577 1 127.807 74.8314 -5.55112e-17
578 1 183.581 115.262 -5.55112e-17
579 2 180.644 52.7244 -5.55112e-17
580 1 109.087 103.483 -5.55112e-17
581 1 91.1823 146.37 -5.55112e-17
582 2 125.518 101.167 -5.55112e-17
583 2 103.1 83.9519 -5.55112e-17
584 2 106.622 151.392 -5.55112e-17
585 1 181.872 103.599 -5.55112e-17
586 1 143.82 80.1745 -5.55112e-17
587 1 158.199 111.833 -5.55112e-17
588 2 64.3773 108.338 -5.55112e-17
589 1 210.854 59.5468 -5.55112e-17
590 2 181.658 58.4736 -5.55112e-17
591 2 179.071 16.9447 -5.55112e-17
592 1 203.665 129.169 -5.55112e-17
593 1 127.287 90.1747 -5.55112e-17
594 1 5.48766 70.3448 -5.55112e-17
595 1 32.8699 62.0688 -5.55112e-17
596 2 107.144 71.1778 -5.55112e-17
597 2 63.4658 105.309 -5.55112e-17
598 2 135.868 87.7676 -5.55112e-17
599 2 96.6723 167.721 -5.55112e-17
600 2 48.9861 98.5493 -5.55112e-17
601 1 145.469 107.695 -5.55112e-17
602 1 173.794 52.4703 -5.55112e-17
603 2 216.742 159.873 -5.55112e-17
604 1 46.2092 179.354 -5.55112e-17
605 2 139.909 100.428 -5.55112e-17
606 2 150.351 99.6047 -5.55112e-17
607 2 47.2539 169.176 -5.55112e-17
608 2 128.27 31.262 -5.55112e-17
609 1 77.6045 89.0909 -5.55112e-17
610 2 106.025 200.266 -5.55112e-17
611 1 1.47274 165.678 -5.55112e-17
612 1 207.053 117.95 -5.55112e-17
613 2 213.449 156.654 -5.55112e-17
614 1 202.542 30.8276 -5.55112e-17
615 1 151.789 104.549 -5.55112e-17
616 2 145.887 177.966 -5.55112e-17
617 1 169.002 1.17466 -5.55112e-17
618 1 137.422 216.398 -5.55112e-17
619 1 164.148 160.996 -5.55112e-17
620 2 42.5492 88.5261 -5.55112e-17
621 2 203.819 77.4197 -5.55112e-17
622 2 144.668 154.432 -5.55112e-17
623 2 108.594 147.071 -5.55112e-17
624 1 107.081 177.149 -5.55112e-17
625 2 208.681 80.1186 -5.55112e-17
626 1 210.877 190.203 -5.55112e-17
627 2 195.366 193.032 -5.55112e-17
628 1 116.446 156.332 -5.55112e-17
629 1 30.4668 41.1303 -5.55112e-17
630 2 133.268 214.155 -5.55112e-17
631 2 144.576 115.146 -5.55112e-17
632 2 209.196 20.0147 -5.55112e-17
633 2 60.778 131.137 -5.55112e-17
634 2 191.438 68.0263 -5.55112e-17
635 2 79.992 71.8889 -5.55112e-17
636 1 88.1467 130.903 -5.55112e-17
637 1 217.11 152.985 -5.55112e-17
638 1 116.362 69.2769 -5.55112e-17
639 2 200.544 65.8788 -5.55112e-17
640 2 149.388 78.3718 -5.55112e-17
641 1 199.977 97.1336 -5.55112e-17
642 2 162.04 35.8912 -5.55112e-17
643 1 165.415 58.0891 -5.55112e-17
644 2 139.085 154.848 -5.55112e-17
645 2 5.5894 75.6068 -5.55112e-17
646 1 169.413 142.949 -5.55112e-17
647 2 128.838 148.254 -5.55112e-17
648 2 190.717 211.766 -5.55112e-17
649 1 63.1135 145.026 -5.55112e-17
650 1 56.0164 152.885 -5.55112e-17
651 1 112.439 130.708 -5.55112e-17
652 2 8.72695 214.177 -5.55112e-17
653 2 195.492 45.2428 -5.55112e-17
654 1 208.623 165.106 -5.55112e-17
655 1 63.4696 47.1469 -5.55112e-17
656 1 199.237 10.5344 -5.55112e-17
657 1 124.961 120.471 -5.55112e-17
658 2 165.597 105.681 -5.55112e-17
659 2 101.539 137.205 -5.55112e-17
660 1 25.454 12.0065 -5.55112e-17
661 2 15.8355 37.123 -5.55112e-17
662 2 135.793 116.974 -5.55112e-17
663 1 163.474 113.316 -5.55112e-17
664 1 79.9134 138.436 -5.55112e-17
665 1 135.343 143.834 -5.55112e-17
666 1 202.631 185.385 -5.55112e-17
667 1 0.282702 117.186 -5.55112e-17
668 1 133.793 156.729 -5.55112e-17
669 1 106.831 160.682 -5.55112e-17
670 2 212.153 161.236 -5.55112e-17
671 1 3.66747 15.9928 -5.55112e-17
672 1 193.788 141.958 -5.55112e-17
673 2 47.2369 84.2643 -5.55112e-17
674 2 182.41 205.73 -5.55112e-17
675 2 152.6 2.24543 -5.55112e-17
676 1 180.35 159.777 -5.55112e-17
677 2 53.2399 52.9389 -5.55112e-17
678 1 86.5709 113.501 -5.55112e-17
679 1 86.5964 64.6919 -5.55112e-17
680 2 71.9121 13.1558 -5.55112e-17
681 1 5.29485 9.08974 -5.55112e-17
682 1 141.522 171.575 -5.55112e-17
683 2 96.302 123.187 -5.55112e-17
684 1 23.3718 180.246 -5.55112e-17
685 1 84.2218 205.854 -5.55112e-17
686 1 142.604 159.797 -5.55112e-17
687 1 107.542 53.2712 -5.55112e-17
688 1 151.845 97.5344 -5.55112e-17
689 2 10.5774 139.479 -5.55112e-17
690 1 48.1956 120.47 -5.55112e-17
691 2 64.7017 115.047 -5.55112e-17
692 2 180.107 178.84 -5.55112e-17
693 1 161.425 96.6702 -5.55112e-17
694 2 146.587 149.954 -5.55112e-17
695 2 187.852 36.8484 -5.55112e-17
696 2 31.4166 81.8919 -5.55112e-17
697 1 103.979 35.8001 -5.55112e-17
698 2 41.2114 18.6842 -5.55112e-17
699 1 57.5083 202.514 -5.55112e-17
700 2 17.8201 126.227 -5.55112e-17
701 2 30.6322 63.7044 -5.55112e-17
702 1 160.836 9.97662 -5.55112e-17
703 1 195.863 60.9574 -5.55112e-17
704 1 159.496 122.022 -5.55112e-17
705 1 43.3832 120.223 -5.55112e-17
706 1 75.2394 161.173 -5.55112e-17
707 1 182.279 66.8442 -5.55112e-17
708 2 195.095 101.706 -5.55112e-17
709 1 54.2768 159.999 -5.55112e-17
710 2 91.9085 16.1634 -5.55112e-17
711 2 1.54518 139.389 -5.55112e-17
712 1 84.848 213.381 -5.55112e-17
713 1 4.89598 152.435 -5.55112e-17
714 2 144.931 147.421 -5.55112e-17
715 2 133.157 87.0583 -5.55112e-17
716 1 88.7915 59.7111 -5.55112e-17
717 1 15.1333 61.3587 -5.55112e-17
718 2 78.6107 99.6839 -5.55112e-17
719 1 69.2385 202.633 -5.55112e-17
720 2 52.2354 197.082 -5.55112e-17
721 2 44.2616 212.8 -5.55112e-17
722 2 64.9881 137.977 -5.55112e-17
723 2 15.5865 165.58 -5.55112e-17
724 2 202.479 107.125 -5.55112e-17
725 2 21.6963 50.0292 -5.55112e-17
726 2 177.826 124.116 -5.55112e-17
727 2 35.3288 109.456 -5.55112e-17
728 1 176.593 77.6566 -5.55112e-17
729 2 167.017 131.908 -5.55112e-17
730 2 175.163 94.676 -5.55112e-17
731 1 10.321 23.1825 -5.55112e-17
732 2 98.0517 87.1576 -5.55112e-17
733 2 147.793 146.829 -5.55112e-17
734 2 59.2276 191.761 -5.55112e-17
735 2 149.076 71.9639 -5.55112e-17
736 1 182.032 177.064 -5.55112e-17
737 2 48.9265 39.1598 -5.55112e-17
738 2 71.5873 207.346 -5.55112e-17
739 2 185.69 131.527 -5.55112e-17
740 2 40.41 115.487 -5.55112e-17
741 2 200.409 114.357 -5.55112e-17
742 1 71.6518 98.5505 -5.55112e-17
743 2 78.7427 75.6971 -5.55112e-17
744 1 146.99 50.3172 -5.55112e-17
745 2 15.7036 75.449 -5.55112e-17
746 1 218.936 121.874 -5.55112e-17
747 1 97.9601 163.235 -5.55112e-17
748 2 70.4284 197.467 -5.55112e-17
749 1 213.605 166.323 -5.55112e-17
750 1 139.057 147.793 -5.55112e-17
751 1 143.385 89.3497 -5.55112e-17
752 2 194.86 168.807 -5.55112e-17
753 1 37.2381 180.61 -5.55112e-17
754 2 65.9444 80.5309 -5.55112e-17
755 1 6.3211 80.6617 -5.55112e-17
756 2 178.545 58.5349 -5.55112e-17
757 1 110.915 15.2951 -5.55112e-17
758 2 99.4595 27.7756 -5.55112e-17
759 1 96.191 133.18 -5.55112e-17
760 1 171.073 62.0688 -5.55112e-17
761 2 213.007 101.161 -5.55112e-17
762 1 178.325 106.334 -5.55112e-17
763 2 6.41478 157.664 -5.55112e-17
764 2 43.5582 188.3 -5.55112e-17
765 1 21.5663 159.947 -5.55112e-17
766 2 99.8788 47.7126 -5.55112e-17
767 2 206.363 149.174 -5.55112e-17
768 2 72.2797 61.7732 -5.55112e-17
769 2 188.003 98.5006 -5.55112e-17
770 1 134.162 18.5146 -5.55112e-17
771 1 64.5737 62.9458 -5.55112e-17
772 1 128.635 1.46702 -5.55112e-17
773 2 166.635 172.439 -5.55112e-17
774 1 87.9954 86.6426 -5.55112e-17
775 1 102.731 76.111 -5.55112e-17
776 2 192.737 103.547 -5.55112e-17
777 2 42.4647 79.5653 -5.55112e-17
778 1 83.537 12.673 -5.55112e-17
779 1 47.7965 61.0025 -5.55112e-17
780 2 83.5273 49.5938 -5.55112e-17
781 1 26.1059 171.405 -5.55112e-17
782 2 123.089 170.147 -5.55112e-17
783 1 74.7784 62.5861 -5.55112e-17
784 2 96.4988 110.409 -5.55112e-17
785 1 204.247 82.7669 -5.55112e-17
786 1 41.9648 6.67789 -5.55112e-17
787 2 38.4407 208.242 -5.55112e-17
788 2 164.844 180.674 -5.55112e-17
789 2 18.3331 147.224 -5.55112e-17
790 2 77.6708 7.59934 -5.55112e-17
791 2 187.971 54.7186 -5.55112e-17
792 1 212.867 132.616 -5.55112e-17
793 1 96.3335 173.558 -5.55112e-17
794 2 209.654 6.52348 -5.55112e-17
795 2 10.3557 191.442 -5.55112e-17
796 1 69.5222 214.956 -5.55112e-17
797 1 46.2803 32.0686 -5.55112e-17
798 1 213.416 55.733 -5.55112e-17
799 2 105.464 155.683 -5.55112e-17
800 1 56.9954 36.8212 -5.55112e-17
801 2 68.238 84.5065 -5.55112e-17
802 1 91.3613 216.466 -5.55112e-17
803 1 143.313 25.1944 -5.55112e-17
804 1 210.083 125.111 -5.55112e-17
805 2 183.52 117.985 -5.55112e-17
806 2 178.485 158.257 -5.55112e-17
807 2 208.182 29.6662 -5.55112e-17
808 2 76.063 144.405 -5.55112e-17
809 1 175.878 63.4402 -5.55112e-17
810 2 24.2445 173.431 -5.55112e-17
811 2 180.375 55.7569 -5.55112e-17
812 1 121.745 185.012 -5.55112e-17
813 1 21.9246 95.5738 -5.55112e-17
814 1 3.25318 204.971 -5.55112e-17
815 1 146.005 32.3552 -5.55112e-17
816 1 206.964 51.2899 -5.55112e-17
817 2 62.87 70.6761 -5.55112e-17
818 2 29.6518 122.857 -5.55112e-17
819 2 210.939 68.2049 -5.55112e-17
820 1 9.70596 59.2114 -5.55112e-17
821 1 65.0116 57.3637 -5.55112e-17
822 2 131.599 34.821 -5.55112e-17
823 1 183.962 90.3803 -5.55112e-17
824 1 175.612 89.7141 -5.55112e-17
825 1 160.275 191.057 -5.55112e-17
826 2 178.302 82.306 -5.55112e-17
827 2 102.569 26.9571 -5.55112e-17
828 1 50.2487 91.2255 -5.55112e-17
829 2 127.569 92.6412 -5.55112e-17
830 1 3.69263 156.863 -5.55112e-17
831 2 183.73 217.993 -5.55112e-17
832 2 26.8594 52.4128 -5.55112e-17
833 2 96.6106 41.601 -5.55112e-17
834 1 70.6868 163.682 -5.55112e-17
835 1 184.955 141.407 -5.55112e-17
836 1 153.317 69.731 -5.55112e-17
837 2 167.756 92.7524 -5.55112e-17
838 2 92.0637 26.0879 -5.55112e-17
839 1 39.0535 31.8702 -5.55112e-17
840 2 14.0457 117.217 -5.55112e-17
841 2 201.773 10.5493 -5.55112e-17
842 1 174.356 157.345 -5.55112e-17
843 1 204.997 29.8712 -5.55112e-17
844 2 8.63609 25.4905 -5.55112e-17
845 1 46.8116 150.847 -5.55112e-17
846 2 127.516 211.512 -5.55112e-17
847 1 88.2748 142.928 -5.55112e-17
848 2 112.925 8.77316 -5.55112e-17
849 1 25.005 32.8467 -5.55112e-17
850 2 59.788 66.9272 -5.55112e-17
851 2 216.172 30.6807 -5.55112e-17
852 1 136.899 182.883 -5.55112e-17
853 1 185.836 105.303 -5.55112e-17
854 2 104.364 144.615 -5.55112e-17
855 2 165.73 121.304 -5.55112e-17
856 1 77.374 159.814 -5.55112e-17