ITEM: TIMESTEP
0
ITEM: NUMBER OF ATOMS
7200
ITEM: BOX BOUNDS xy xz yz pp pp pp
0.0000000000000000e+00 2.1900000000000000e+02 0.0000000000000000e+00
0.0000000000000000e+00 2.1900000000000000e+02 0.0000000000000000e+00
-3.6499999999999999e-01 3.6499999999999999e-01 0.0000000000000000e+00
ITEM: ATOMS id type x y z
1 1 88.9169 36.3096 -5.55112e-17
2 2 121.261 151.269 -5.55112e-17
3 2 76.9542 26.9622 -5.55112e-17
4 1 180.748 16.2831 -5.55112e-17
5 1 75.6039 5.35888 -5.55112e-17
6 1 96.3592 5.8746 -5.55112e-17
7 2 87.077 113.977 -5.55112e-17
8 2 69.0348 162.183 -5.55112e-17
9 1 110.334 169.199 -5.55112e-17
10 2 37.351 66.5721 -5.55112e-17
11 2 129.726 86.0034 -5.55112e-17
12 1 39.1549 93.6052 -5.55112e-17
13 2 157.571 31.5221 -5.55112e-17
14 1 112.963 93.0665 -5.55112e-17
15 2 192.867 176.133 -5.55112e-17
16 2 105.69 40.2826 -5.55112e-17
17 1 106.867 171.846 -5.55112e-17
18 2 218.947 119.203 -5.55112e-17
19 1 171.681 67.4361 -5.55112e-17
20 1 26.886 149.991 -5.55112e-17
21 1 153.846 136.063 -5.55112e-17
22 2 93.4601 169.952 -5.55112e-17
23 2 96.6174 109.46 -5.55112e-17
24 2 210.597 8.39933 -5.55112e-17
25 2 70.1907 178.252 -5.55112e-17
26 2 119.733 192.316 -5.55112e-17
27 1 181.129 67.8546 -5.55112e-17
28 2 207.382 101.104 -5.55112e-17
29 2 126.811 207.316 -5.55112e-17
30 2 30.6954 70.6622 -5.55112e-17
31 2 122.868 43.3125 -5.55112e-17
32 1 6.27226 190.563 -5.55112e-17
33 2 46.3702 200.305 -5.55112e-17
34 2 26.0471 68.1059 -5.55112e-17
35 2 150.004 28.1301 -5.55112e-17
36 1 142.206 203.537 -5.55112e-17
37 1 91.6933 203.764 -5.55112e-17
38 2 86.4858 184.118 -5.55112e-17
39 1 5.17541 174.17 -5.55112e-17
40 2 187.106 215.092 -5.55112e-17
41 1 38.6409 64.1372 -5.55112e-17
42 1 18.0908 83.9827 -5.55112e-17
43 1 140.677 80.6049 -5.55112e-17
44 1 82.8825 93.6084 -5.55112e-17
45 2 129.825 107.785 -5.55112e-17
46 1 200.993 9.64993 -5.55112e-17
47 2 179.693 192.505 -5.55112e-17
48 2 130.524 38.4865 -5.55112e-17
49 1 57.7027 69.4671 -5.55112e-17
50 2 102.849 189.965 -5.55112e-17
51 1 29.406 60.9094 -5.55112e-17
52 1 18.9496 158.899 -5.55112e-17
53 2 188.434 112.334 -5.55112e-17
54 1 129.491 195.844 -5.55112e-17
55 2 45.1406 93.2805 -5.55112e-17
56 1 177.594 37.6899 -5.55112e-17
57 2 69.9435 103.359 -5.55112e-17
58 1 167.553 96.675 -5.55112e-17
59 1 113.463 85.35 -5.55112e-17
60 2 29.9667 12.9815 -5.55112e-17
61 1 7.68839 82.1863 -5.55112e-17
62 1 141.34 36.4662 -5.55112e-17
63 2 120.396 207.733 -5.55112e-17
64 1 105.171 35.4281 -5.55112e-17
65 2 68.7828 42.4042 -5.55112e-17
66 2 39.3238 46.5105 -5.55112e-17
67 2 202.996 56.0215 -5.55112e-17
68 1 112.264 11.7145 -5.55112e-17
69 2 14.2142 44.6448 -5.55112e-17
70 1 94.985 119.95 -5.55112e-17
71 1 153.575 44.3537 -5.55112e-17
72 2 216.115 200.279 -5.55112e-17
73 2 188.636 67.1648 -5.55112e-17
74 2 129.936 177.705 -5.55112e-17
75 1 104.998 159.058 -5.55112e-17
76 2 161.425 3.04488 -5.55112e-17
77 2 19.919 186.237 -5.55112e-17
78 1 30.18 58.5266 -5.55112e-17
79 2 145.27 208.625 -5.55112e-17
80 1 90.3226 191.695 -5.55112e-17
81 1 35.7995 38.963 -5.55112e-17
82 1 0.250544 49.3234 -5.55112e-17
83 1 120.64 123.909 -5.55112e-17
84 2 33.3919 8.37581 -5.55112e-17
85 2 165.716 163.065 -5.55112e-17
86 2 130.005 169.456 -5.55112e-17
87 2 218.756 0.547027 -5.55112e-17
88 1 197.988 96.5838 -5.55112e-17
89 2 129.732 117.751 -5.55112e-17
90 2 26.3099 20.5668 -5.55112e-17
91 2 200.96 75.9889 -5.55112e-17
92 1 145.879 141.287 -5.55112e-17
93 2 50.4448 213.927 -5.55112e-17
94 2 102.629 153.026 -5.55112e-17
95 1 199.565 194.507 -5.55112e-17
96 2 213.394 200.826 -5.55112e-17
97 2 99.1496 107.437 -5.55112e-17
98 2 117.436 7.20201 -5.55112e-17
99 1 56.8181 192.936 -5.55112e-17
100 2 168.006 16.2917 -5.55112e-17
101 1 37.9481 81.2107 -5.55112e-17
102 1 189.74 184.904 -5.55112e-17
103 2 19.9305 65.2131 -5.55112e-17
104 2 216.979 125.706 -5.55112e-17
105 1 218.694 44.571 -5.55112e-17
106 1 91.4433 100.773 -5.55112e-17
107 1 202.346 160.982 -5.55112e-17
108 1 101.804 214.519 -5.55112e-17
109 2 108.294 93.5409 -5.55112e-17
110 2 11.1027 31.2892 -5.55112e-17
111 1 163.901 40.0323 -5.55112e-17
112 2 57.9612 126.805 -5.55112e-17
113 1 57.081 144.189 -5.55112e-17
114 1 94.6709 162.623 -5.55112e-17
115 2 165.95 18.1117 -5.55112e-17
116 2 160.12 124.062 -5.55112e-17
117 1 76.8841 188.272 -5.55112e-17
118 1 141.722 191.439 -5.55112e-17
119 2 198.201 74.2035 -5.55112e-17
120 2 41.0785 14.7909 -5.55112e-17
121 1 175.802 116.515 -5.55112e-17
122 2 126.044 44.7551 -5.55112e-17
123 2 1.49263 132.457 -5.55112e-17
124 1 151.081 73.4865 -5.55112e-17
125 1 58.5681 53.4363 -5.55112e-17
126 2 16.4509 174.196 -5.55112e-17
127 2 9.41939 95.1222 -5.55112e-17
128 1 130.666 205.1 -5.55112e-17
129 1 22.423 211.537 -5.55112e-17
130 2 215.757 73.5529 -5.55112e-17
131 1 171.333 46.802 -5.55112e-17
132 1 100.219 53.2867 -5.55112e-17
133 1 100.893 111.546 -5.55112e-17
134 1 170.874 212.402 -5.55112e-17
135 2 179.966 102.361 -5.55112e-17
136 1 18.6558 25.7258 -5.55112e-17
137 1 213.444 170.115 -5.55112e-17
138 2 84.6814 122.168 -5.55112e-17
139 1 99.8804 193.841 -5.55112e-17
140 1 135.596 92.4652 -5.55112e-17
141 1 10.0352 139.936 -5.55112e-17
142 1 203.432 197.253 -5.55112e-17
143 1 184.707 35.3056 -5.55112e-17
144 1 57.5931 172.015 -5.55112e-17
145 2 96.4761 83.1581 -5.55112e-17
146 1 112.396 118.295 -5.55112e-17
147 2 78.9455 55.6894 -5.55112e-17
148 1 144.862 8.06144 -5.55112e-17
149 1 71.6126 21.5131 -5.55112e-17
150 2 77.0396 132.126 -5.55112e-17
151 1 59.6802 162.266 -5.55112e-17
152 1 60.1768 36.5922 -5.55112e-17
153 2 148.942 64.6641 -5.55112e-17
154 1 33.5298 25.8822 -5.55112e-17
155 2 184.95 101.512 -5.55112e-17
156 2 150.658 119.269 -5.55112e-17
157 2 31.737 1.18237 -5.55112e-17
158 2 182.614 212.498 -5.55112e-17
159 2 216.447 120.975 -5.55112e-17
160 2 30.7505 202.681 -5.55112e-17
161 2 46.2099 150.232 -5.55112e-17
162 1 113.973 151.149 -5.55112e-17
163 1 0.075402 213.832 -5.55112e-17
164 2 91.0532 158.826 -5.55112e-17
165 1 157.871 170.353 -5.55112e-17
166 2 194.41 131.132 -5.55112e-17
167 1 51.3921 151.495 -5.55112e-17
168 1 15.6103 103.596 -5.55112e-17
169 2 167.606 160.926 -5.55112e-17
170 1 205.846 203.894 -5.55112e-17
171 1 197.376 16.0642 -5.55112e-17
172 1 141.659 110.955 -5.55112e-17
173 1 165.496 44.0297 -5.55112e-17
174 2 50.8879 68.6094 -5.55112e-17
175 2 59.8265 109.248 -5.55112e-17
176 1 26.5155 208.342 -5.55112e-17
177 2 143.362 5.56176 -5.55112e-17
178 1 79.8977 37.6411 -5.55112e-17
179 2 66.4872 1.25712 -5.55112e-17
180 1 57.7509 81.0938 -5.55112e-17
181 1 34.0063 18.4868 -5.55112e-17
182 1 112.643 95.7961 -5.55112e-17
183 1 134.928 170.115 -5.55112e-17
184 2 136.625 180.662 -5.55112e-17
185 2 211.092 154.724 -5.55112e-17
186 2 2.05768 215.945 -5.55112e-17
187 2 141.055 104.781 -5.55112e-17
188 2 214.531 142.172 -5.55112e-17
189 1 84.3999 19.47 -5.55112e-17
190 1 158.378 44.5637 -5.55112e-17
191 2 3.04679 29.4475 -5.55112e-17
192 2 123.803 208.543 -5.55112e-17
193 1 24.3203 22.4981 -5.55112e-17
194 1 60.0605 156.684 -5.55112e-17
195 2 28.3568 85.1988 -5.55112e-17
196 1 15.0629 180.236 -5.55112e-17
197 2 205.454 105.289 -5.55112e-17
198 2 147.086 35.5416 -5.55112e-17
199 2 29.4757 182.375 -5.55112e-17
200 2 176.12 124.042 -5.55112e-17
201 2 51.2973 175.489 -5.55112e-17
202 1 177.012 141.697 -5.55112e-17
203 1 139.41 38.0172 -5.55112e-17
204 2 199.683 23.6467 -5.55112e-17
205 2 53.133 66.9526 -5.55112e-17
206 2 129.148 58.7089 -5.55112e-17
207 1 68.2543 120.655 -5.55112e-17
208 2 196.721 83.8497 -5.55112e-17
209 2 23.9693 139.68 -5.55112e-17
210 1 64.0456 66.8347 -5.55112e-17
211 1 117.579 179.82 -5.55112e-17
212 1 67.0692 35.0999 -5.55112e-17
213 1 70.8598 95.574 -5.55112e-17
214 2 63.6381 121.499 -5.55112e-17
215 1 35.903 29.1771 -5.55112e-17
216 1 84.022 91.5033 -5.55112e-17
217 1 218.495 206.155 -5.55112e-17
218 2 28.579 121.327 -5.55112e-17
219 2 183.658 180.943 -5.55112e-17
220 1 119.6 133.239 -5.55112e-17
221 2 52.0116 141.958 -5.55112e-17
222 1 118.201 47.4949 -5.55112e-17
223 1 12.78 116.242 -5.55112e-17
224 2 196.469 43.0201 -5.55112e-17
225 2 57.4838 116.643 -5.55112e-17
226 1 140.222 54.944 -5.55112e-17
227 2 72.1673 154.022 -5.55112e-17
228 2 14.6927 15.1183 -5.55112e-17
229 1 162.898 96.2415 -5.55112e-17
230 1 123.116 173.805 -5.55112e-17
231 2 197.823 32.326 -5.55112e-17
232 1 138.801 89.6911 -5.55112e-17
233 2 60.6106 184.614 -5.55112e-17
234 1 74.6668 114.492 -5.55112e-17
235 1 212.287 140.896 -5.55112e-17
236 2 185.238 210.789 -5.55112e-17
237 2 165.472 211.945 -5.55112e-17
238 2 158.578 164.793 -5.55112e-17
239 1 174.747 55.6254 -5.55112e-17
240 1 97.1596 17.3453 -5.55112e-17
241 2 210.806 20.5978 -5.55112e-17
242 1 39.8078 79.5207 -5.55112e-17
243 2 69.0029 97.4936 -5.55112e-17
244 2 79.7375 67.8445 -5.55112e-17
245 1 30.8112 94.0632 -5.55112e-17
246 2 99.7721 154.722 -5.55112e-17
247 2 158.444 16.8451 -5.55112e-17
248 1 20.0138 46.0549 -5.55112e-17
249 1 61.5647 158.765 -5.55112e-17
250 1 190.523 97.5075 -5.55112e-17
251 2 77.3483 101.432 -5.55112e-17
252 1 162.295 196.065 -5.55112e-17
253 2 49.9256 130.46 -5.55112e-17
254 2 50.5949 61.204 -5.55112e-17
255 2 21.7335 199.742 -5.55112e-17
256 1 36.5748 33.8529 -5.55112e-17
257 2 118.516 108.447 -5.55112e-17
258 1 215.651 202.596 -5.55112e-17
259 2 119.231 53.957 -5.55112e-17
260 1 115.282 186.548 -5.55112e-17
261 2 152.89 180.69 -5.55112e-17
262 2 20.3784 70.5653 -5.55112e-17
263 2 124.871 185.263 -5.55112e-17
264 1 48.181 211.764 -5.55112e-17
265 1 49.3692 22.6173 -5.55112e-17
266 1 146.45 197.925 -5.55112e-17
267 2 129.363 48.498 -5.55112e-17
268 1 39.382 166.73 -5.55112e-17
269 2 200.399 166.055 -5.55112e-17
270 2 80.3401 124.305 -5.55112e-17
271 2 198.863 158.454 -5.55112e-17
272 1 23.5046 169.198 -5.55112e-17
273 1 173.305 57.7176 -5.55112e-17
274 1 8.57051 67.3055 -5.55112e-17
275 1 99.9086 213.084 -5.55112e-17
276 1 16.7945 7.33967 -5.55112e-17
277 1 73.0627 119.683 -5.55112e-17
278 2 113.294 48.2555 -5.55112e-17
279 2 144.229 23.2988 -5.55112e-17
280 1 16.7403 171.28 -5.55112e-17
281 2 95.4719 159.446 -5.55112e-17
282 2 104.944 102.253 -5.55112e-17
283 2 162.626 179.205 -5.55112e-17
284 1 9.08893 123.805 -5.55112e-17
285 1 47.362 27.3859 -5.55112e-17
286 2 51.8209 63.7948 -5.55112e-17
287 2 139.347 82.93 -5.55112e-17
288 1 125.434 156.595 -5.55112e-17
289 2 35.6202 64.5795 -5.55112e-17
290 1 3.85707 206.21 -5.55112e-17
291 2 105.324 152.391 -5.55112e-17
292 1 149.144 156.542 -5.55112e-17
293 1 87.6234 209.908 -5.55112e-17
294 1 34.0676 69.1632 -5.55112e-17
295 2 137.84 134.744 -5.55112e-17
296 1 96.9837 28.4886 -5.55112e-17
297 1 86.7021 195.25 -5.55112e-17
298 2 96.7318 76.7839 -5.55112e-17
299 1 9.4682 156.718 -5.55112e-17
300 2 68.1523 62.4424 -5.55112e-17
301 2 70.7166 128.522 -5.55112e-17
302 2 127.395 151.283 -5.55112e-17
303 1 67.389 150.42 -5.55112e-17
304 1 173.814 184.025 -5.55112e-17
305 1 124.101 56.3663 -5.55112e-17
306 2 12.4631 166.835 -5.55112e-17
307 2 32.823 81.9214 -5.55112e-17
308 2 95.0263 68.5572 -5.55112e-17
309 1 128.889 153.432 -5.55112e-17
310 1 51.4974 13.6109 -5.55112e-17
311 1 92.1781 51.8555 -5.55112e-17
312 2 77.3672 153.073 -5.55112e-17
313 2 54.1249 88.4902 -5.55112e-17
314 1 208.262 213.597 -5.55112e-17
315 2 98.7508 127.097 -5.55112e-17
316 1 171.134 9.35658 -5.55112e-17
317 1 67.8898 77.2131 -5.55112e-17
318 1 155.154 99.7729 -5.55112e-17
319 2 92.7501 2.74649 -5.55112e-17
320 1 26.8591 65.5624 -5.55112e-17
321 1 28.8756 54.4367 -5.55112e-17
322 1 139.424 216.358 -5.55112e-17
323 2 212.543 135.241 -5.55112e-17
324 2 16.3793 189.182 -5.55112e-17
325 2 171.868 33.4833 -5.55112e-17
326 1 12.4681 76.666 -5.55112e-17
327 1 5.08835 61.3399 -5.55112e-17
328 2 116.535 49.4268 -5.55112e-17
329 2 79.6101 31.5594 -5.55112e-17
330 2 95.7154 3.12378 -5.55112e-17
331 2 217.425 78.866 -5.55112e-17
332 2 172.392 120.942 -5.55112e-17
333 2 95.2321 186.791 -5.55112e-17
334 2 181.829 85.0467 -5.55112e-17
335 1 131.016 19.1893 -5.55112e-17
336 2 73.0107 80.9328 -5.55112e-17
337 2 151.225 157.929 -5.55112e-17
338 1 155.45 52.4734 -5.55112e-17
339 2 102.7 212.129 -5.55112e-17
340 2 47.9847 206.241 -5.55112e-17
341 2 65.4514 55.0713 -5.55112e-17
342 2 0.932329 107.73 -5.55112e-17
343 2 75.1228 154.859 -5.55112e-17
344 1 150.655 187.59 -5.55112e-17
345 2 218.746 195.325 -5.55112e-17
346 2 206.446 110.692 -5.55112e-17
347 1 118.444 176.121 -5.55112e-17
348 1 140.597 11.5235 -5.55112e-17
349 2 154.604 126.07 -5.55112e-17
350 2 7.92635 164.73 -5.55112e-17
351 1 72.0201 218.523 -5.55112e-17
352 1 19.4026 97.2233 -5.55112e-17
353 2 212.902 52.6453 -5.55112e-17
354 2 115.528 142.852 -5.55112e-17
355 1 92.8314 15.6475 -5.55112e-17
356 2 74.8159 48.8165 -5.55112e-17
357 1 178.199 42.028 -5.55112e-17
358 1 215.721 55.3252 -5.55112e-17
359 1 66.4285 11.8052 -5.55112e-17
360 1 205.89 78.0418 -5.55112e-17
361 2 185.053 119.785 -5.55112e-17
362 2 0.684842 171.585 -5.55112e-17
363 1 42.3321 80.128 -5.55112e-17
364 2 16.0348 149.011 -5.55112e-17
365 1 185.839 213.148 -5.55112e-17
366 1 181.889 179.048 -5.55112e-17
367 1 168.037 149.997 -5.55112e-17
368 1 187.667 69.4999 -5.55112e-17
369 2 115.913 35.8129 -5.55112e-17
370 1 46.5177 117.037 -5.55112e-17
371 2 146.935 13.3928 -5.55112e-17
372 1 107.799 130.602 -5.55112e-17
373 2 217.994 75.6818 -5.55112e-17
374 2 150.026 170.397 -5.55112e-17
375 1 122.003 49.0192 -5.55112e-17
376 1 6.075 169.509 -5.55112e-17
377 2 30.8223 56.1716 -5.55112e-17
378 2 153.676 92.0215 -5.55112e-17
379 2 114.99 183.969 -5.55112e-17
380 1 100.138 96.8411 -5.55112e-17
381 1 120.456 180.005 -5.55112e-17
382 1 180.865 45.533 -5.55112e-17
383 1 20.9428 0.435363 -5.55112e-17
384 2 170.168 6.58511 -5.55112e-17
385 1 37.3928 213.654 -5.55112e-17
386 2 214.714 29.7855 -5.55112e-17
387 1 209.009 22.5769 -5.55112e-17
388 1 141.599 38.9555 -5.55112e-17
389 2 12.4771 57.013 -5.55112e-17
390 1 113.664 162.66 -5.55112e-17
391 1 147.044 76.6246 -5.55112e-17
392 2 156.463 183.501 -5.55112e-17
393 2 23.1787 30.8908 -5.55112e-17
394 1 106.889 5.79858 -5.55112e-17
395 1 145.712 117.741 -5.55112e-17
396 2 48.1241 56.787 -5.55112e-17
397 1 63.5903 22.1523 -5.55112e-17
398 2 38.8824 143.988 -5.55112e-17
399 2 172.357 128.249 -5.55112e-17
400 2 138.682 92.3639 -5.55112e-17
401 2 85.9381 75.6558 -5.55112e-17
402 1 78.9674 99.4471 -5.55112e-17
403 1 155.514 212.419 -5.55112e-17
404 2 119.533 4.98132 -5.55112e-17
405 1 105.662 176.516 -5.55112e-17
406 2 124.328 150.998 -5.55112e-17
407 1 188.918 49.5002 -5.55112e-17
408 1 20.6791 37.8006 -5.55112e-17
409 2 159.868 196.778 -5.55112e-17
410 2 159.873 64.8447 -5.55112e-17
411 1 39.4443 20.3526 -5.55112e-17
412 1 96.6045 100.095 -5.55112e-17
413 1 92.8256 143.867 -5.55112e-17
414 2 164.017 52.1767 -5.55112e-17
415 1 146.187 143.771 -5.55112e-17
416 1 151.24 45.8985 -5.55112e-17
417 2 39.7841 25.8431 -5.55112e-17
418 2 7.96525 113.497 -5.55112e-17
419 2 38.7309 7.18073 -5.55112e-17
420 2 146.045 10.2628 -5.55112e-17
421 1 120.048 73.6331 -5.55112e-17
422 1 32.1923 163.616 -5.55112e-17
423 2 87.6105 6.90628 -5.55112e-17
424 2 162.446 22.5353 -5.55112e-17
425 2 145.623 120.362 -5.55112e-17
426 1 110.732 120.573 -5.55112e-17
427 2 88.3884 154.341 -5.55112e-17
428 1 44.6774 155.055 -5.55112e-17
429 2 123.904 30.5337 -5.55112e-17
430 2 82.0249 165.218 -5.55112e-17
431 1 34.811 67.0447 -5.55112e-17
432 2 180.844 153.793 -5.55112e-17
433 1 207.719 8.23376 -5.55112e-17
434 1 117.393 96.3408 -5.55112e-17
435 1 74.7994 130.418 -5.55112e-17
436 2 194.616 36.6683 -5.55112e-17
437 2 200.152 39.5079 -5.55112e-17
438 2 59.8077 90.78 -5.55112e-17
439 2 48.9865 20.0101 -5.55112e-17
440 2 155.609 42.6837 -5.55112e-17
441 1 133.806 184.423 -5.55112e-17
442 1 7.74181 149.995 -5.55112e-17
443 2 69.5773 143.001 -5.55112e-17
444 1 47.6496 52.3994 -5.55112e-17
445 1 76.5962 24.2059 -5.55112e-17
446 2 28.8494 101.102 -5.55112e-17
447 2 4.46687 40.8271 -5.55112e-17
448 2 191.828 82.0275 -5.55112e-17
449 1 192.058 64.2131 -5.55112e-17
450 1 36.0592 99.9636 -5.55112e-17
451 1 149.369 166.928 -5.55112e-17
452 2 124.155 127.005 -5.55112e-17
453 1 11.1289 144.205 -5.55112e-17
454 1 195.008 120.55 -5.55112e-17
455 2 22.9573 57.5215 -5.55112e-17
456 1 187.144 25.1185 -5.55112e-17
457 2 119.717 184.892 -5.55112e-17
458 2 32.6617 78.8763 -5.55112e-17
459 2 143.976 155.317 -5.55112e-17
460 1 22.8313 159.017 -5.55112e-17
461 1 104.632 145.071 -5.55112e-17
462 1 131.034 105.333 -5.55112e-17
463 2 186.709 92.7068 -5.55112e-17
464 2 62.2056 32.0904 -5.55112e-17
465 1 130.929 115.469 -5.55112e-17
466 2 131.243 110.251 -5.55112e-17
467 2 105.174 183.89 -5.55112e-17
468 2 22.0571 106.801 -5.55112e-17
469 2 199.763 14.2957 -5.55112e-17
470 2 195.615 114.183 -5.55112e-17
471 2 79.162 195.841 -5.55112e-17
472 2 62.1944 88.4156 -5.55112e-17
473 2 104.523 170.369 -5.55112e-17
474 2 136.732 140.085 -5.55112e-17
475 1 159.976 115.507 -5.55112e-17
476 2 104.09 48.7127 -5.55112e-17
477 1 110.802 94.3731 -5.55112e-17
478 1 94.0386 66.2707 -5.55112e-17
479 2 59.6511 82.8233 -5.55112e-17
480 1 26.1174 38.642 -5.55112e-17
481 1 200.333 52.0184 -5.55112e-17
482 2 125.271 196.839 -5.55112e-17
483 1 63.7785 170.199 -5.55112e-17
484 1 124.636 87.1176 -5.55112e-17
485 2 66.1771 130.5 -5.55112e-17
486 1 23.8656 54.9091 -5.55112e-17
487 1 210.245 100.454 -5.55112e-17
488 1 43.3486 63.0383 -5.55112e-17
489 1 91.6422 25.5732 -5.55112e-17
490 1 51.3557 5.6425 -5.55112e-17
491 1 155.158 174.493 -5.55112e-17
492 2 79.0885 14.6589 -5.55112e-17
493 1 85.8714 171.8 -5.55112e-17
494 2 168.953 189.144 -5.55112e-17
495 1 94.3396 90.2248 -5.55112e-17
496 1 169.581 85.4784 -5.55112e-17
497 1 112.7 217.878 -5.55112e-17
498 2 40.686 133.813 -5.55112e-17
499 2 191.294 212.27 -5.55112e-17
500 2 210.935 80.3183 -5.55112e-17
501 2 156.913 148.887 -5.55112e-17
502 2 63.7517 176.094 -5.55112e-17
503 2 88.8693 110.14 -5.55112e-17
504 2 215.604 14.4087 -5.55112e-17
505 2 90.4824 140.161 -5.55112e-17
506 1 120.23 156.579 -5.55112e-17
507 2 5.82423 195.994 -5.55112e-17
508 1 87.5915 77.548 -5.55112e-17
509 1 48.6189 218.675 -5.55112e-17
510 1 210.882 129.003 -5.55112e-17
511 2 101.537 51.0586 -5.55112e-17
512 1 97.9651 124.407 -5.55112e-17
513 2 45.5891 212.015 -5.55112e-17
514 2 174.789 214.257 -5.55112e-17
515 1 5.8352 25.3026 -5.55112e-17
516 2 138.103 206.148 -5.55112e-17
517 1 110.055 9.83659 -5.55112e-17
518 2 204.851 113.02 -5.55112e-17
519 1 213.477 147.039 -5.55112e-17
520 2 40.27 22.8428 -5.55112e-17
521 2 6.50795 53.9461 -5.55112e-17
522 1 106.832 12.6721 -5.55112e-17
523 1 27.2777 202.898 -5.55112e-17
524 2 99.9207 99.5146 -5.55112e-17
525 2 130.175 130.685 -5.55112e-17
526 2 14.6127 140.725 -5.55112e-17
527 1 41.1294 112.107 -5.55112e-17
528 1 27.1052 175.841 -5.55112e-17
529 2 153.846 158.435 -5.55112e-17
530 2 201.742 118.577 -5.55112e-17
531 2 172.992 124.037 -5.55112e-17
532 1 63.9431 147.749 -5.55112e-17
533 2 125.851 216.636 -5.55112e-17
534 1 192.626 165.176 -5.55112e-17
535 1 70.9627 171.341 -5.55112e-17
536 2 174.613 109.376 -5.55112e-17
537 1 155.924 197.865 -5.55112e-17
538 1 199.258 3.75274 -5.55112e-17
539 2 32.43 111.775 -5.55112e-17
540 1 127.187 85.9615 -5.55112e-17
541 1 179.83 13.6933 -5.55112e-17
542 1 173.674 9.85573 -5.55112e-17
543 2 203.128 59.2873 -5.55112e-17
544 1 174.645 188.382 -5.55112e-17
545 1 17.1723 186.679 -5.55112e-17
546 2 206.67 126.77 -5.55112e-17
547 1 186.559 31.4788 -5.55112e-17
548 1 207.711 57.5036 -5.55112e-17
549 2 72.4639 186.45 -5.55112e-17
550 2 16.5921 215.692 -5.55112e-17
551 2 99.8443 143.192 -5.55112e-17
552 1 9.95267 112.444 -5.55112e-17
553 2 210.799 71.7352 -5.55112e-17
554 2 191.281 46.3759 -5.55112e-17
555 2 103.046 75.9105 -5.55112e-17
556 1 68.186 140.403 -5.55112e-17
557 1 67.9466 217.446 -5.55112e-17
558 1 145.989 74.398 -5.55112e-17
559 2 54.5173 161.162 -5.55112e-17
560 2 112.117 127.439 -5.55112e-17
561 2 51.2752 97.7481 -5.55112e-17
562 2 67.0378 210.492 -5.55112e-17
563 1 90.7151 133.336 -5.55112e-17
564 2 69.8278 34.1628 -5.55112e-17
565 2 199.977 63.5658 -5.55112e-17
566 2 39.9984 128.351 -5.55112e-17
567 1 35.4469 160.602 -5.55112e-17
568 1 80.9006 177.138 -5.55112e-17
569 2 88.504 107.018 -5.55112e-17
570 2 62.4073 82.1142 -5.55112e-17
571 2 78.7032 206.847 -5.55112e-17
572 1 200.803 73.4828 -5.55112e-17
573 2 72.1501 215.459 -5.55112e-17
574 2 36.9201 69.1486 -5.55112e-17
575 1 201.1 16.4889 -5.55112e-17
576 1 8.14613 71.6203 -5.55112e-17
577 1 141.895 138.392 -5.55112e-17
578 1 54.8795 157.426 -5.55112e-17
579 2 181.015 205.544 -5.55112e-17
580 1 198.17 29.1149 -5.55112e-17
581 1 23.5763 191.776 -5.55112e-17
582 2 148.894 38.3952 -5.55112e-17
583 2 157.203 69.5843 -5.55112e-17
584 2 79.1872 19.5429 -5.55112e-17
585 1 77.8788 186.024 -5.55112e-17
586 1 175.101 139.904 -5.55112e-17
587 1 117.59 73.7553 -5.55112e-17
588 2 40.7465 18.0822 -5.55112e-17
589 1 18.5451 9.0096 -5.55112e-17
590 2 86.8922 97.0611 -5.55112e-17
591 2 97.4794 182.651 -5.55112e-17
592 1 195.233 78.7101 -5.55112e-17
593 1 158.87 156.517 -5.55112e-17
594 1 114.909 40.6153 -5.55112e-17
595 1 211.638 124.709 -5.55112e-17
596 2 75.1845 162.217 -5.55112e-17
597 2 160.811 152.157 -5.55112e-17
598 2 208.834 32.9562 -5.55112e-17
599 2 86.2369 47.7769 -5.55112e-17
600 2 192.947 135.08 -5.55112e-17
601 1 17.3067 102.129 -5.55112e-17
602 1 33.8954 173.709 -5.55112e-17
603 2 39.0537 43.2922 -5.55112e-17
604 1 158.446 136.716 -5.55112e-17
605 2 19.2372 13.4127 -5.55112e-17
606 2 51.4994 43.7531 -5.55112e-17
607 2 183.433 69.4205 -5.55112e-17
608 2 18.2032 161.357 -5.55112e-17
609 1 130.217 150.802 -5.55112e-17
610 2 4.6794 146.416 -5.55112e-17
611 1 180.736 169.523 -5.55112e-17
612 1 65.4893 185.963 -5.55112e-17
613 2 136.06 82.1095 -5.55112e-17
614 1 185.678 183.414 -5.55112e-17
615 1 193.433 218.173 -5.55112e-17
616 2 157.43 7.06706 -5.55112e-17
617 1 160.984 17.0014 -5.55112e-17
618 1 197.979 170.868 -5.55112e-17
619 1 106.558 52.4913 -5.55112e-17
620 2 55.1646 48.7295 -5.55112e-17
621 2 184.509 174.154 -5.55112e-17
622 2 68.4449 6.14637 -5.55112e-17
623 2 9.87899 21.5922 -5.55112e-17
624 1 74.4336 152.614 -5.55112e-17
625 2 12.4292 92.0242 -5.55112e-17
626 1 9.34927 177.028 -5.55112e-17
627 2 171.791 164.619 -5.55112e-17
628 1 112.767 195.626 -5.55112e-17
629 1 116.433 156.328 -5.55112e-17
630 2 120.509 215.105 -5.55112e-17
631 2 137.655 162.354 -5.55112e-17
632 2 5.48476 2.45105 -5.55112e-17
633 2 150.804 129.698 -5.55112e-17
634 2 44.4448 2.03612 -5.55112e-17
635 2 39.8951 58.3143 -5.55112e-17
636 1 28.4375 194.724 -5.55112e-17
637 1 158.886 94.7744 -5.55112e-17
638 1 208.999 18.204 -5.55112e-17
639 2 36.0391 36.4089 -5.55112e-17
640 2 183.009 103.339 -5.55112e-17
641 1 180.718 28.1774 -5.55112e-17
642 2 24.4102 48.4998 -5.55112e-17
643 1 118.565 80.425 -5.55112e-17
644 2 208.793 10.8186 -5.55112e-17
645 2 120.646 204.568 -5.55112e-17
646 1 170.285 207.296 -5.55112e-17
647 2 47.3432 144.945 -5.55112e-17
648 2 206.561 88.9914 -5.55112e-17
649 1 137.07 189.594 -5.55112e-17
650 1 121.248 199.167 -5.55112e-17
651 1 14.1729 114.004 -5.55112e-17
652 2 65.2138 14.5071 -5.55112e-17
653 2 14.3762 51.4839 -5.55112e-17
654 1 42.9778 50.317 -5.55112e-17
655 1 158.239 129.701 -5.55112e-17
656 1 175.801 203.337 -5.55112e-17
657 1 142.135 13.5907 -5.55112e-17
658 2 104.54 187.361 -5.55112e-17
659 2 4.42709 203.558 -5.55112e-17
660 1 20.781 79.0435 -5.55112e-17
661 2 91.2036 36.0506 -5.55112e-17
662 2 76.8528 167.903 -5.55112e-17
663 1 139.761 125.416 -5.55112e-17
664 1 41.2312 96.805 -5.55112e-17
665 1 216.066 43.744 -5.55112e-17
666 1 216.902 167.569 -5.55112e-17
667 1 184.28 83.6826 -5.55112e-17
668 1 144.558 27.4461 -5.55112e-17
669 1 159.458 188.005 -5.55112e-17
670 2 5.18072 104.119 -5.55112e-17
671 1 83.3488 79.5879 -5.55112e-17
672 1 91.1324 216.224 -5.55112e-17
673 2 176.853 163.024 -5.55112e-17
674 2 6.69761 213.552 -5.55112e-17
675 2 55.7539 177.293 -5.55112e-17
676 1 180.35 25.5549 -5.55112e-17
677 2 52.7713 131.095 -5.55112e-17
678 1 76.563 96.0707 -5.55112e-17
679 1 81.416 111.574 -5.55112e-17
680 2 41.8926 119.983 -5.55112e-17
681 1 187.766 55.2846 -5.55112e-17
682 1 202.414 112.337 -5.55112e-17
683 2 132.967 52.3334 -5.55112e-17
684 1 117.634 168.628 -5.55112e-17
685 1 117.222 184.813 -5.55112e-17
686 1 175.736 104.357 -5.55112e-17
687 1 179.273 149.831 -5.55112e-17
688 1 112.809 210.567 -5.55112e-17
689 2 15.5582 69.9472 -5.55112e-17
690 1 16.126 182.106 -5.55112e-17
691 2 35.5358 130.956 -5.55112e-17
692 2 183.707 206.452 -5.55112e-17
693 1 167.135 194.195 -5.55112e-17
694 2 214.315 79.1675 -5.55112e-17
695 2 44.109 180.5 -5.55112e-17
696 2 161.136 214.052 -5.55112e-17
697 1 6.01992 159.978 -5.55112e-17
698 2 24.3308 142.783 -5.55112e-17
699 1 138.076 132.083 -5.55112e-17
700 2 37.1647 91.7049 -5.55112e-17
701 2 66.4404 67.3678 -5.55112e-17
702 1 122.533 206.138 -5.55112e-17
703 1 44.303 59.0356 -5.55112e-17
704 1 37.0599 62.406 -5.55112e-17
705 1 0.234657 47.1226 -5.55112e-17
706 1 206.031 175.464 -5.55112e-17
707 1 33.9208 73.8596 -5.55112e-17
708 2 188.003 100.538 -5.55112e-17
709 1 124.224 178.762 -5.55112e-17
710 2 97.0709 199.309 -5.55112e-17
711 2 114.193 3.21467 -5.55112e-17
712 1 7.97705 78.2906 -5.55112e-17
713 1 82.2222 69.1972 -5.55112e-17
714 2 128.436 104.037 -5.55112e-17
715 2 214.205 182.638 -5.55112e-17
716 1 52.5819 177.39 -5.55112e-17
717 1 54.9632 126.62 -5.55112e-17
718 2 102.066 101.623 -5.55112e-17
719 1 116.658 75.9094 -5.55112e-17
720 2 146.598 171.334 -5.55112e-17
721 2 71.8556 26.6103 -5.55112e-17
722 2 188.75 217.486 -5.55112e-17
723 2 209.951 215.541 -5.55112e-17
724 2 10.6634 174.654 -5.55112e-17
725 2 141.896 183.752 -5.55112e-17
726 2 100.081 24.3742 -5.55112e-17
727 2 213.678 85.9586 -5.55112e-17
728 1 189.7 24.6842 -5.55112e-17
729 2 43.731 144.723 -5.55112e-17
730 2 77.5189 74.3185 -5.55112e-17
731 1 110.853 105.274 -5.55112e-17
732 2 66.6373 60.0919 -5.55112e-17
733 2 27.7608 4.12634 -5.55112e-17
734 2 112.816 41.812 -5.55112e-17
735 2 138.954 107.233 -5.55112e-17
736 1 205.683 56.1659 -5.55112e-17
737 2 42.0577 159.453 -5.55112e-17
738 2 23.6428 98.9876 -5.55112e-17
739 2 81.6235 189.629 -5.55112e-17
740 2 126.204 148.556 -5.55112e-17
741 2 7.70461 27.5009 -5.55112e-17
742 1 150.246 132.092 -5.55112e-17
743 2 169.847 136.64 -5.55112e-17
744 1 194.471 166.448 -5.55112e-17
745 2 192.908 162.581 -5.55112e-17
746 1 14.0344 81.2649 -5.55112e-17
747 1 98.8522 89.9712 -5.55112e-17
748 2 89.399 33.6906 -5.55112e-17
749 1 119.771 78.222 -5.55112e-17
750 1 74.0011 195.708 -5.55112e-17
751 1 26.093 50.4818 -5.55112e-17
752 2 140.346 66.7236 -5.55112e-17
753 1 3.73 116.033 -5.55112e-17
754 2 164.816 66.8481 -5.55112e-17
755 1 54.4338 179.176 -5.55112e-17
756 2 153.541 8.53008 -5.55112e-17
757 1 207.855 198.781 -5.55112e-17
758 2 13.9642 206.585 -5.55112e-17
759 1 19.9303 130.067 -5.55112e-17
760 1 27.0714 102.655 -5.55112e-17
761 2 213.828 187.497 -5.55112e-17
762 1 7.97958 30.348 -5.55112e-17
763 2 139.141 75.0421 -5.55112e-17
764 2 186.163 65.3179 -5.55112e-17
765 1 42.7309 30.5782 -5.55112e-17
766 2 185.566 27.2051 -5.55112e-17
767 2 126.744 177.57 -5.55112e-17
768 2 79.7898 11.6805 -5.55112e-17
769 2 8.17773 35.9204 -5.55112e-17
770 1 109.367 80.7318 -5.55112e-17
771 1 84.5533 214.619 -5.55112e-17
772 1 139.065 115.067 -5.55112e-17
773 2 218.911 165.502 -5.55112e-17
774 1 46.3038 44.0157 -5.55112e-17
775 1 66.8981 16.5319 -5.55112e-17
776 2 79.8286 192.183 -5.55112e-17
777 2 61.103 131.785 -5.55112e-17
778 1 165.205 192.681 -5.55112e-17
779 1 125.866 210.144 -5.55112e-17
780 2 126.312 180.687 -5.55112e-17
781 1 44.0789 78.5383 -5.55112e-17
782 2 61.4045 154.059 -5.55112e-17
783 1 152.297 215.378 -5.55112e-17
784 2 158.622 113.452 -5.55112e-17
785 1 119.01 105.933 -5.55112e-17
786 1 103.218 87.4626 -5.55112e-17
787 2 63.6623 133.516 -5.55112e-17
788 2 25.7236 30.317 -5.55112e-17
789 2 99.8488 215.983 -5.55112e-17
790 2 24.6285 81.7419 -5.55112e-17
791 2 108.696 163.644 -5.55112e-17
792 1 178.764 57.6626 -5.55112e-17
793 1 69.7645 187.28 -5.55112e-17
794 2 152.687 207.51 -5.55112e-17
795 2 86.76 205.17 -5.55112e-17
796 1 53.4787 81.7941 -5.55112e-17
797 1 183.83 49.2776 -5.55112e-17
798 1 124.38 13.8028 -5.55112e-17
799 2 72.8943 104.206 -5.55112e-17
800 1 4.01033 6.76792 -5.55112e-17
801 2 117.213 165.884 -5.55112e-17
802 1 138.701 59.2052 -5.55112e-17
803 1 190.066 7.2443 -5.55112e-17
804 1 68.5725 188.96 -5.55112e-17
805 2 76.5559 190.99 -5.55112e-17
806 2 183.331 190.435 -5.55112e-17
807 2 84.9447 5.30198 -5.55112e-17
808 2 59.3616 173.746 -5.55112e-17
809 1 43.1868 164.644 -5.55112e-17
810 2 52.1963 58.5039 -5.55112e-17
811 2 131.367 197.55 -5.55112e-17
812 1 173.943 158.39 -5.55112e-17
813 1 166.758 51.2265 -5.55112e-17
814 1 49.9581 8.27158 -5.55112e-17
815 1 8.26798 7.92107 -5.55112e-17
816 1 172.63 140.044 -5.55112e-17
817 2 98.8193 121.707 -5.55112e-17
818 2 103.945 147.927 -5.55112e-17
819 2 164.592 113.717 -5.55112e-17
820 1 153.688 73.646 -5.55112e-17
821 1 77.5124 12.7662 -5.55112e-17
822 2 195.466 180.49 -5.55112e-17
823 1 50.9154 93.217 -5.55112e-17
824 1 66.3515 98.3194 -5.55112e-17
825 1 175.052 60.292 -5.55112e-17
826 2 154.497 110.859 -5.55112e-17
827 2 73.0132 178.755 -5.55112e-17
828 1 124.107 94.8148 -5.55112e-17
829 2 99.0166 50.2134 -5.55112e-17
830 1 17.3289 120.801 -5.55112e-17
831 2 200.527 57.755 -5.55112e-17
832 2 82.4596 89.5061 -5.55112e-17
833 2 25.8788 152.537 -5.55112e-17
834 1 128.398 37.0454 -5.55112e-17
835 1 95.392 207.261 -5.55112e-17
836 1 77.4625 150.529 -5.55112e-17
837 2 160.392 30.4544 -5.55112e-17
838 2 196.552 126.409 -5.55112e-17
839 1 6.31014 7.80018 -5.55112e-17
840 2 156.679 188.004 -5.55112e-17
841 2 190.463 171.532 -5.55112e-17
842 1 16.6715 60.8011 -5.55112e-17
843 1 117.47 9.47621 -5.55112e-17
844 2 38.975 54.2707 -5.55112e-17
845 1 148.79 211.954 -5.55112e-17
846 2 52.0718 86.5387 -5.55112e-17
847 1 84.4275 70.429 -5.55112e-17
848 2 44.5839 32.4591 -5.55112e-17
849 1 91.945 77.0455 -5.55112e-17
850 2 71.4974 189.692 -5.55112e-17
851 2 102.571 98.3694 -5.55112e-17
852 1 117.957 187.442 -5.55112e-17
853 1 171.606 97.1526 -5.55112e-17
854 2 147.77 150.902 -5.55112e-17
855 2 178.094 117.233 -5.55112e-17
856 1 216.029 174.894 -5.55112e-17