ITEM: TIMESTEP
0
ITEM: NUMBER OF ATOMS
7200
ITEM: BOX BOUNDS xy xz yz pp pp pp
0.0000000000000000e+00 2.1900000000000000e+02 0.0000000000000000e+00
0.0000000000000000e+00 2.1900000000000000e+02 0.0000000000000000e+00
-3.6499999999999999e-01 3.6499999999999999e-01 0.0000000000000000e+00
ITEM: ATOMS id type x y z
1 1 106.511 114.948 -5.55112e-17
2 2 214.806 159.593 -5.55112e-17
3 2 163.073 86.0778 -5.55112e-17
4 1 0.185328 192.912 -5.55112e-17
5 1 206.41 70.556 -5.55112e-17
6 1 160.784 146.823 -5.55112e-17
7 2 0.272293 148.147 -5.55112e-17
8 2 164.083 11.949 -5.55112e-17
9 1 73.861 21.4081 -5.55112e-17
10 2 141.055 85.1291 -5.55112e-17
11 2 84.4092 204.817 -5.55112e-17
12 1 163.954 60.1156 -5.55112e-17
13 2 55.2919 196.494 -5.55112e-17
14 1 88.2318 185.508 -5.55112e-17
15 2 210.216 200.021 -5.55112e-17
16 2 123.451 44.0387 -5.55112e-17
17 1 117.989 15.2953 -5.55112e-17
18 2 21.8038 112.193 -5.55112e-17
19 1 45.3695 130.204 -5.55112e-17
20 1 187.782 7.14713 -5.55112e-17
21 1 54.6166 178.315 -5.55112e-17
22 2 154.93 63.0452 -5.55112e-17
23 2 117.947 27.875 -5.55112e-17
24 2 58.9596 8.83035 -5.55112e-17
25 2 88.8806 202.456 -5.55112e-17
26 2 103.569 61.3803 -5.55112e-17
27 1 23.2589 138.876 -5.55112e-17
28 2 34.0184 91.4983 -5.55112e-17
29 2 101.823 181.739 -5.55112e-17
30 2 77.7822 163.663 -5.55112e-17
31 2 196.89 148.446 -5.55112e-17
32 1 68.1563 74.2868 -5.55112e-17
33 2 113.69 39.0155 -5.55112e-17
34 2 60.4055 143.289 -5.55112e-17
35 2 145.05 33.4655 -5.55112e-17
36 1 185.969 95.0604 -5.55112e-17
37 1 46.5121 178.692 -5.55112e-17
38 2 168.154 53.6524 -5.55112e-17
39 1 72.3091 74.8141 -5.55112e-17
40 2 169.777 123.191 -5.55112e-17
41 1 83.4014 11.6878 -5.55112e-17
42 1 11.1112 58.5908 -5.55112e-17
43 1 79.2309 176.701 -5.55112e-17
44 1 193.233 207.254 -5.55112e-17
45 2 214.248 19.5121 -5.55112e-17
46 1 46.8125 87.1552 -5.55112e-17
47 2 120.581 18.6583 -5.55112e-17
48 2 138.152 127.904 -5.55112e-17
49 1 97.7446 33.6957 -5.55112e-17
50 2 174.92 213.578 -5.55112e-17
51 1 198.397 124.107 -5.55112e-17
52 1 205.034 61.7691 -5.55112e-17
53 2 124.238 217.302 -5.55112e-17
54 1 107.743 8.93758 -5.55112e-17
55 2 180.362 81.9001 -5.55112e-17
56 1 81.381 8.21242 -5.55112e-17
57 2 217.951 198.759 -5.55112e-17
58 1 184.974 25.309 -5.55112e-17
59 1 129.193 188.506 -5.55112e-17
60 2 139.523 23.1066 -5.55112e-17
61 1 52.5214 6.44641 -5.55112e-17
62 1 116.674 68.8329 -5.55112e-17
63 2 35.2545 119.949 -5.55112e-17
64 1 85.5681 174.205 -5.55112e-17
65 2 60.7215 131.467 -5.55112e-17
66 2 10.6551 136.193 -5.55112e-17
67 2 154.445 149.33 -5.55112e-17
68 1 153.539 159.861 -5.55112e-17
69 2 122.691 204.956 -5.55112e-17
70 1 140.845 100.476 -5.55112e-17
71 1 33.1898 185.318 -5.55112e-17
72 2 211.294 85.2921 -5.55112e-17
73 2 169.407 207.619 -5.55112e-17
74 2 113.792 126.002 -5.55112e-17
75 1 48.7439 46.7316 -5.55112e-17
76 2 164.2 208.584 -5.55112e-17
77 2 155.112 57.4521 -5.55112e-17
78 1 194.918 192.537 -5.55112e-17
79 2 96.0309 88.8 -5.55112e-17
80 1 78.8544 217.445 -5.55112e-17
81 1 143.786 160.119 -5.55112e-17
82 1 26.7237 171.062 -5.55112e-17
83 1 3.61368 151.421 -5.55112e-17
84 2 208.866 65.2729 -5.55112e-17
85 2 196.463 178.608 -5.55112e-17
86 2 215.841 181.583 -5.55112e-17
87 2 49.6988 159.836 -5.55112e-17
88 1 159.53 96.6857 -5.55112e-17
89 2 135.567 26.4831 -5.55112e-17
90 2 59.3405 110.971 -5.55112e-17
91 2 152.109 88.9577 -5.55112e-17
92 1 113.08 82.8232 -5.55112e-17
93 2 21.5843 207.963 -5.55112e-17
94 2 111.036 149.734 -5.55112e-17
95 1 23.4336 212.084 -5.55112e-17
96 2 167.26 93.4404 -5.55112e-17
97 2 214.055 65.7075 -5.55112e-17
98 2 122.996 135.186 -5.55112e-17
99 1 128.813 208.498 -5.55112e-17
100 2 168.429 147.567 -5.55112e-17
101 1 202.036 186.24 -5.55112e-17
102 1 196.483 154.218 -5.55112e-17
103 2 157.207 110.442 -5.55112e-17
104 2 136.423 18.9362 -5.55112e-17
105 1 141.885 211.317 -5.55112e-17
106 1 23.2713 96.7047 -5.55112e-17
107 1 9.63697 34.9641 -5.55112e-17
108 1 191.448 189.466 -5.55112e-17
109 2 7.40173 110.682 -5.55112e-17
110 2 89.0783 150.297 -5.55112e-17
111 1 206.414 105.318 -5.55112e-17
112 2 152.01 178.308 -5.55112e-17
113 1 10.7305 129.596 -5.55112e-17
114 1 3.80464 172.928 -5.55112e-17
115 2 126.48 154.079 -5.55112e-17
116 2 171.408 201.084 -5.55112e-17
117 1 50.6508 199.331 -5.55112e-17
118 1 208.975 158.365 -5.55112e-17
119 2 50.3473 172.411 -5.55112e-17
120 2 154.841 194.137 -5.55112e-17
121 1 53.1292 197.627 -5.55112e-17
122 2 10.8771 50.412 -5.55112e-17
123 2 218.063 76.2502 -5.55112e-17
124 1 190.462 178.598 -5.55112e-17
125 1 161.406 129.69 -5.55112e-17
126 2 74.9392 63.7071 -5.55112e-17
127 2 96.5587 28.0397 -5.55112e-17
128 1 122.169 10.3136 -5.55112e-17
129 1 59.8056 217.157 -5.55112e-17
130 2 16.0678 26.0722 -5.55112e-17
131 1 78.0542 148.391 -5.55112e-17
132 1 42.0543 143.081 -5.55112e-17
133 1 24.7846 88.5994 -5.55112e-17
134 1 102.163 193.436 -5.55112e-17
135 2 162.056 213.58 -5.55112e-17
136 1 128.758 47.3932 -5.55112e-17
137 1 181.434 195.054 -5.55112e-17
138 2 48.2114 106.42 -5.55112e-17
139 1 35.6233 30.4447 -5.55112e-17
140 1 2.29351 203.831 -5.55112e-17
141 1 69.4148 202.559 -5.55112e-17
142 1 204.866 34.2131 -5.55112e-17
143 1 174.09 112.336 -5.55112e-17
144 1 215.738 56.5026 -5.55112e-17
145 2 205.673 41.5558 -5.55112e-17
146 1 171.277 187.488 -5.55112e-17
147 2 159.166 38.9404 -5.55112e-17
148 1 97.0101 70.3029 -5.55112e-17
149 1 188.282 68.4062 -5.55112e-17
150 2 33.3993 32.3184 -5.55112e-17
151 1 136.435 206.77 -5.55112e-17
152 1 87.0633 165.908 -5.55112e-17
153 2 214.993 217.483 -5.55112e-17
154 1 210.211 58.9156 -5.55112e-17
155 2 165.366 198.274 -5.55112e-17
156 2 217.866 184.261 -5.55112e-17
157 2 141.323 197.802 -5.55112e-17
158 2 55.8692 204.101 -5.55112e-17
159 2 39.8134 6.56613 -5.55112e-17
160 2 143.647 83.9398 -5.55112e-17
161 2 167.998 7.83342 -5.55112e-17
162 1 139.212 166.707 -5.55112e-17
163 1 68.1481 20.2969 -5.55112e-17
164 2 98.9499 180.837 -5.55112e-17
165 1 217.735 189.225 -5.55112e-17
166 2 56.3574 144.426 -5.55112e-17
167 1 159.173 130.874 -5.55112e-17
168 1 21.128 210.794 -5.55112e-17
169 2 149.163 136.726 -5.55112e-17
170 1 59.2714 134.005 -5.55112e-17
171 1 41.4476 77.2389 -5.55112e-17
172 1 185.93 212.646 -5.55112e-17
173 1 65.3997 36.6127 -5.55112e-17
174 2 176.35 103.364 -5.55112e-17
175 2 25.5613 175.896 -5.55112e-17
176 1 208.318 171.637 -5.55112e-17
177 2 206.728 78.9444 -5.55112e-17
178 1 44.4432 164.357 -5.55112e-17
179 2 11.3162 141.739 -5.55112e-17
180 1 129.735 144.588 -5.55112e-17
181 1 114.288 210.456 -5.55112e-17
182 1 39.329 134.103 -5.55112e-17
183 1 176.798 74.8576 -5.55112e-17
184 2 110.19 54.532 -5.55112e-17
185 2 183.139 15.7969 -5.55112e-17
186 2 67.4404 28.4055 -5.55112e-17
187 2 95.2061 188.839 -5.55112e-17
188 2 132.515 140.867 -5.55112e-17
189 1 130.375 192.777 -5.55112e-17
190 1 57.1831 108.849 -5.55112e-17
191 2 170.193 27.1838 -5.55112e-17
192 2 51.4488 52.9303 -5.55112e-17
193 1 184.211 41.0885 -5.55112e-17
194 1 198.609 172.151 -5.55112e-17
195 2 11.2632 182.451 -5.55112e-17
196 1 131.164 39.5305 -5.55112e-17
197 2 80.6444 98.5048 -5.55112e-17
198 2 181.997 180.044 -5.55112e-17
199 2 184.436 169.199 -5.55112e-17
200 2 144.756 155.221 -5.55112e-17
201 2 216.263 187.054 -5.55112e-17
202 1 170.114 89.2147 -5.55112e-17
203 1 210.899 153.815 -5.55112e-17
204 2 212.836 164.375 -5.55112e-17
205 2 71.5772 7.13606 -5.55112e-17
206 2 122.333 155.45 -5.55112e-17
207 1 59.3852 92.4967 -5.55112e-17
208 2 23.3028 48.9107 -5.55112e-17
209 2 79.6019 64.0828 -5.55112e-17
210 1 75.3548 128.543 -5.55112e-17
211 1 37.4985 7.87589 -5.55112e-17
212 1 63.914 160.969 -5.55112e-17
213 1 78.2968 71.0972 -5.55112e-17
214 2 184.391 79.5953 -5.55112e-17
215 1 41.0391 215.504 -5.55112e-17
216 1 143.207 204.893 -5.55112e-17
217 1 96.0059 101.81 -5.55112e-17
218 2 110.936 127.682 -5.55112e-17
219 2 107.39 192.565 -5.55112e-17
220 1 110.923 49.3187 -5.55112e-17
221 2 102.437 209.365 -5.55112e-17
222 1 132.654 128.297 -5.55112e-17
223 1 212.433 4.13107 -5.55112e-17
224 2 171.393 33.8692 -5.55112e-17
225 2 147.673 139.127 -5.55112e-17
226 1 126.47 164.384 -5.55112e-17
227 2 53.2084 43.7333 -5.55112e-17
228 2 32.6911 4.92337 -5.55112e-17
229 1 40.7975 64.9314 -5.55112e-17
230 1 81.8926 205.246 -5.55112e-17
231 2 17.2198 6.35215 -5.55112e-17
232 1 88.9995 74.4313 -5.55112e-17
233 2 121.879 116.243 -5.55112e-17
234 1 112.963 135.053 -5.55112e-17
235 1 164.981 22.3603 -5.55112e-17
236 2 167.93 200.319 -5.55112e-17
237 2 91.2319 41.0589 -5.55112e-17
238 2 106.307 27.014 -5.55112e-17
239 1 208.331 180.739 -5.55112e-17
240 1 4.87657 153.42 -5.55112e-17
241 2 73.3634 170.427 -5.55112e-17
242 1 113.507 150.797 -5.55112e-17
243 2 28.6955 159.758 -5.55112e-17
244 2 57.9701 148.747 -5.55112e-17
245 1 132.119 205.39 -5.55112e-17
246 2 184.007 43.6289 -5.55112e-17
247 2 31.9784 107.519 -5.55112e-17
248 1 30.5416 102.374 -5.55112e-17
249 1 61.5912 173.863 -5.55112e-17
250 1 25.9495 215.884 -5.55112e-17
251 2 74.3491 87.5822 -5.55112e-17
252 1 172.374 124.101 -5.55112e-17
253 2 45.085 85.1016 -5.55112e-17
254 2 71.7431 83.6138 -5.55112e-17
255 2 173.453 119.538 -5.55112e-17
256 1 88.2992 61.6583 -5.55112e-17
257 2 163.225 178.273 -5.55112e-17
258 1 6.53341 64.0251 -5.55112e-17
259 2 176.589 126.861 -5.55112e-17
260 1 132.919 76.3786 -5.55112e-17
261 2 111.902 204.872 -5.55112e-17
262 2 182.135 8.1769 -5.55112e-17
263 2 14.2526 91.0781 -5.55112e-17
264 1 115.841 143.916 -5.55112e-17
265 1 176.354 178.353 -5.55112e-17
266 1 37.6308 73.7723 -5.55112e-17
267 2 192.618 151.615 -5.55112e-17
268 1 121.359 207.153 -5.55112e-17
269 2 161.561 61.3454 -5.55112e-17
270 2 48.0957 23.8092 -5.55112e-17
271 2 108.49 128.526 -5.55112e-17
272 1 17.8175 40.6224 -5.55112e-17
273 1 31.2612 105.089 -5.55112e-17
274 1 139.88 113.897 -5.55112e-17
275 1 52.1378 210.18 -5.55112e-17
276 1 207.554 113.421 -5.55112e-17
277 1 125.693 96.8283 -5.55112e-17
278 2 119.08 50.6331 -5.55112e-17
279 2 150.818 38.5664 -5.55112e-17
280 1 205.135 176.634 -5.55112e-17
281 2 200.095 147.483 -5.55112e-17
282 2 103.561 67.5165 -5.55112e-17
283 2 8.59707 149.208 -5.55112e-17
284 1 42.1157 211.568 -5.55112e-17
285 1 65.1581 176.725 -5.55112e-17
286 2 121.795 119.691 -5.55112e-17
287 2 19.2419 14.0035 -5.55112e-17
288 1 198.167 93.518 -5.55112e-17
289 2 106.293 98.3111 -5.55112e-17
290 1 208.248 169.592 -5.55112e-17
291 2 10.3323 185.319 -5.55112e-17
292 1 111.36 15.2916 -5.55112e-17
293 1 135.38 45.4977 -5.55112e-17
294 1 197.943 54.192 -5.55112e-17
295 2 34.3859 62.1769 -5.55112e-17
296 1 83.533 28.4217 -5.55112e-17
297 1 166.76 47.3608 -5.55112e-17
298 2 30.0757 202.081 -5.55112e-17
299 1 164.829 45.8814 -5.55112e-17
300 2 25.2044 111.066 -5.55112e-17
301 2 142.163 182.719 -5.55112e-17
302 2 31.1642 51.6763 -5.55112e-17
303 1 103.818 128.187 -5.55112e-17
304 1 68.916 8.52187 -5.55112e-17
305 1 92.7081 190.072 -5.55112e-17
306 2 197.602 51.4545 -5.55112e-17
307 2 19.6183 35.9844 -5.55112e-17
308 2 30.6556 150.167 -5.55112e-17
309 1 207.365 139.999 -5.55112e-17
310 1 180.952 147.771 -5.55112e-17
311 1 32.2477 88.8671 -5.55112e-17
312 2 78.8186 153.011 -5.55112e-17
313 2 11.422 149.973 -5.55112e-17
314 1 209.768 113.953 -5.55112e-17
315 2 108.062 32.3263 -5.55112e-17
316 1 99.111 26.809 -5.55112e-17
317 1 68.2599 48.9268 -5.55112e-17
318 1 121.016 85.238 -5.55112e-17
319 2 206.647 217.61 -5.55112e-17
320 1 12.5816 134.711 -5.55112e-17
321 1 93.1577 56.8937 -5.55112e-17
322 1 5.55999 4.55828 -5.55112e-17
323 2 146.169 215.438 -5.55112e-17
324 2 54.9047 141.972 -5.55112e-17
325 2 210.879 56.4623 -5.55112e-17
326 1 96.7481 17.6328 -5.55112e-17
327 1 93.7753 178.322 -5.55112e-17
328 2 180.634 11.0751 -5.55112e-17
329 2 56.7941 187.211 -5.55112e-17
330 2 194.564 20.505 -5.55112e-17
331 2 176.086 185.739 -5.55112e-17
332 2 115.518 89.7213 -5.55112e-17
333 2 133.964 43.516 -5.55112e-17
334 2 210.776 35.4392 -5.55112e-17
335 1 213.862 49.5236 -5.55112e-17
336 2 73.0221 95.5498 -5.55112e-17
337 2 75.9845 153.704 -5.55112e-17
338 1 216.239 130.188 -5.55112e-17
339 2 115.411 19.0354 -5.55112e-17
340 2 138.816 143.183 -5.55112e-17
341 2 46.1761 183.464 -5.55112e-17
342 2 139.177 202.892 -5.55112e-17
343 2 186.153 39.2545 -5.55112e-17
344 1 68.7863 109.97 -5.55112e-17
345 2 53.286 205.706 -5.55112e-17
346 2 112.767 30.212 -5.55112e-17
347 1 145.3 120.262 -5.55112e-17
348 1 76.3461 216.676 -5.55112e-17
349 2 94.301 165.906 -5.55112e-17
350 2 177.868 191.622 -5.55112e-17
351 1 174.823 5.86337 -5.55112e-17
352 1 20.5286 56.1315 -5.55112e-17
353 2 30.8394 21.8805 -5.55112e-17
354 2 11.77 167.668 -5.55112e-17
355 1 128.424 49.682 -5.55112e-17
356 2 125.251 65.8131 -5.55112e-17
357 1 111.95 70.5905 -5.55112e-17
358 1 44.1178 146.798 -5.55112e-17
359 1 132.931 26.5115 -5.55112e-17
360 1 200.972 112.016 -5.55112e-17
361 2 83.6 99.5776 -5.55112e-17
362 2 5.47064 115.664 -5.55112e-17
363 1 66.6871 7.4146 -5.55112e-17
364 2 187.637 58.113 -5.55112e-17
365 1 169.879 105.358 -5.55112e-17
366 1 37.7181 204.484 -5.55112e-17
367 1 147.848 184.76 -5.55112e-17
368 1 117.143 205.136 -5.55112e-17
369 2 199.909 67.3056 -5.55112e-17
370 1 116.783 161.404 -5.55112e-17
371 2 189.778 75.2713 -5.55112e-17
372 1 25.2039 130.805 -5.55112e-17
373 2 7.24769 192.102 -5.55112e-17
374 2 53.079 73.1622 -5.55112e-17
375 1 167.156 161.756 -5.55112e-17
376 1 106.621 168.026 -5.55112e-17
377 2 35.9114 66.5582 -5.55112e-17
378 2 20.4523 83.726 -5.55112e-17
379 2 103.12 112.422 -5.55112e-17
380 1 94.3638 120.642 -5.55112e-17
381 1 184.623 191.08 -5.55112e-17
382 1 86.2197 107.624 -5.55112e-17
383 1 206.594 203.492 -5.55112e-17
384 2 182.976 61.9203 -5.55112e-17
385 1 118.844 212.224 -5.55112e-17
386 2 42.6595 206.519 -5.55112e-17
387 1 71.462 100.527 -5.55112e-17
388 1 65.1121 181.96 -5.55112e-17
389 2 110.459 43.6188 -5.55112e-17
390 1 174.287 163.578 -5.55112e-17
391 1 195.939 53.0964 -5.55112e-17
392 2 204.907 86.5241 -5.55112e-17
393 2 155.454 90.0579 -5.55112e-17
394 1 63.6701 118.866 -5.55112e-17
395 1 134.21 110.153 -5.55112e-17
396 2 115.044 112.534 -5.55112e-17
397 1 73.4883 112.127 -5.55112e-17
398 2 193.154 16.1334 -5.55112e-17
399 2 174.633 24.3032 -5.55112e-17
400 2 156.031 48.1191 -5.55112e-17
401 2 194.196 159.26 -5.55112e-17
402 1 92.8221 192.429 -5.55112e-17
403 1 108.622 98.0811 -5.55112e-17
404 2 180.106 171.465 -5.55112e-17
405 1 54.0883 163.966 -5.55112e-17
406 2 104.9 1.09698 -5.55112e-17
407 1 179.616 38.4159 -5.55112e-17
408 1 190.41 93.178 -5.55112e-17
409 2 8.50357 128.275 -5.55112e-17
410 2 14.6063 117.08 -5.55112e-17
411 1 210.3 107.334 -5.55112e-17
412 1 115.186 34.1163 -5.55112e-17
413 1 122.231 195.923 -5.55112e-17
414 2 184.06 210.214 -5.55112e-17
415 1 191.662 180.372 -5.55112e-17
416 1 49.0563 10.5291 -5.55112e-17
417 2 126.057 6.79105 -5.55112e-17
418 2 6.09052 151.015 -5.55112e-17
419 2 200.804 70.5548 -5.55112e-17
420 2 23.8718 70.9414 -5.55112e-17
421 1 155.677 217.848 -5.55112e-17
422 1 98.2853 118.252 -5.55112e-17
423 2 63.4174 31.125 -5.55112e-17
424 2 60.6982 200.995 -5.55112e-17
425 2 30.4937 86.1743 -5.55112e-17
426 1 27.136 197.474 -5.55112e-17
427 2 36.8844 86.9482 -5.55112e-17
428 1 146.833 31.2918 -5.55112e-17
429 2 175.033 57.52 -5.55112e-17
430 2 73.9839 79.6383 -5.55112e-17
431 1 94.4409 81.5851 -5.55112e-17
432 2 174.975 191.71 -5.55112e-17
433 1 128.855 89.8276 -5.55112e-17
434 1 189.035 30.4005 -5.55112e-17
435 1 171.915 43.3152 -5.55112e-17
436 2 73.9833 42.7939 -5.55112e-17
437 2 7.64012 69.3448 -5.55112e-17
438 2 68.9848 11.1637 -5.55112e-17
439 2 178.419 146.219 -5.55112e-17
440 2 67.5412 180.637 -5.55112e-17
441 1 137.141 166.185 -5.55112e-17
442 1 212.127 110.713 -5.55112e-17
443 2 190.652 206.311 -5.55112e-17
444 1 145.273 86.262 -5.55112e-17
445 1 53.3054 66.0756 -5.55112e-17
446 2 136.636 38.3442 -5.55112e-17
447 2 83.7841 156.399 -5.55112e-17
448 2 184.329 97.1624 -5.55112e-17
449 1 155.801 155.584 -5.55112e-17
450 1 201.357 162.672 -5.55112e-17
451 1 144.546 122.485 -5.55112e-17
452 2 169.84 135.7 -5.55112e-17
453 1 152.158 210.76 -5.55112e-17
454 1 25.6976 125.315 -5.55112e-17
455 2 83.8755 18.3734 -5.55112e-17
456 1 184.811 70.7991 -5.55112e-17
457 2 133.187 55.6976 -5.55112e-17
458 2 103.661 85.349 -5.55112e-17
459 2 35.5799 14.681 -5.55112e-17
460 1 2.60613 36.7924 -5.55112e-17
461 1 204.081 116.698 -5.55112e-17
462 1 191.731 203.789 -5.55112e-17
463 2 69.1804 195.827 -5.55112e-17
464 2 143.62 104.612 -5.55112e-17
465 1 18.7556 38.5124 -5.55112e-17
466 2 19.5137 203.554 -5.55112e-17
467 2 99.4945 84.454 -5.55112e-17
468 2 7.31046 165.393 -5.55112e-17
469 2 152.212 116.932 -5.55112e-17
470 2 66.8964 128.448 -5.55112e-17
471 2 40.1083 122.063 -5.55112e-17
472 2 70.7622 188.448 -5.55112e-17
473 2 6.05746 2.1485 -5.55112e-17
474 2 75.4735 113.469 -5.55112e-17
475 1 157.761 160.079 -5.55112e-17
476 2 151.583 66.5726 -5.55112e-17
477 1 205.918 188.948 -5.55112e-17
478 1 34.9898 11.6922 -5.55112e-17
479 2 212.831 146.137 -5.55112e-17
480 1 216.746 147.028 -5.55112e-17
481 1 21.9932 42.541 -5.55112e-17
482 2 18.937 217.014 -5.55112e-17
483 1 144.522 95.9128 -5.55112e-17
484 1 128.513 201.331 -5.55112e-17
485 2 161.59 137.328 -5.55112e-17
486 1 112.886 114.078 -5.55112e-17
487 1 217.522 208.308 -5.55112e-17
488 1 79.4149 209.203 -5.55112e-17
489 1 204.298 218.352 -5.55112e-17
490 1 34.9454 3.89859 -5.55112e-17
491 1 215.246 189.88 -5.55112e-17
492 2 87.0128 206.463 -5.55112e-17
493 1 61.4898 70.5349 -5.55112e-17
494 2 91.9402 149.383 -5.55112e-17
495 1 151.232 93.685 -5.55112e-17
496 1 2.16037 109.121 -5.55112e-17
497 1 99.34 137.076 -5.55112e-17
498 2 111.234 40.6347 -5.55112e-17
499 2 41.5696 178.41 -5.55112e-17
500 2 70.1609 185.661 -5.55112e-17
501 2 23.4594 184.873 -5.55112e-17
502 2 98.1587 144.572 -5.55112e-17
503 2 160.065 35.825 -5.55112e-17
504 2 78.8591 100.918 -5.55112e-17
505 2 133.969 107.679 -5.55112e-17
506 1 56.7346 189.894 -5.55112e-17
507 2 139.055 133.889 -5.55112e-17
508 1 52.3758 85.9795 -5.55112e-17
509 1 129.803 62.8981 -5.55112e-17
510 1 152.819 29.333 -5.55112e-17
511 2 171.288 133.037 -5.55112e-17
512 1 118.158 149.869 -5.55112e-17
513 2 92.6717 134.896 -5.55112e-17
514 2 54.0623 54.609 -5.55112e-17
515 1 77.9286 188.091 -5.55112e-17
516 2 46.6936 163.693 -5.55112e-17
517 1 115.534 28.966 -5.55112e-17
518 2 134.644 23.2296 -5.55112e-17
519 1 55.102 18.7492 -5.55112e-17
520 2 119.348 117.966 -5.55112e-17
521 2 80.1626 50.8137 -5.55112e-17
522 1 189.459 217.857 -5.55112e-17
523 1 67.4613 197.784 -5.55112e-17
524 2 115.754 148.662 -5.55112e-17
525 2 150.977 18.2581 -5.55112e-17
526 2 130.408 92.2501 -5.55112e-17
527 1 169.396 128.286 -5.55112e-17
528 1 131.298 113.079 -5.55112e-17
529 2 39.682 167.685 -5.55112e-17
530 2 174.537 34.7937 -5.55112e-17
531 2 157.698 11.0332 -5.55112e-17
532 1 83.2784 154.056 -5.55112e-17
533 2 39.753 125.297 -5.55112e-17
534 1 198.419 48.7255 -5.55112e-17
535 1 215.989 98.1614 -5.55112e-17
536 2 209.398 47.2385 -5.55112e-17
537 1 55.2197 133.442 -5.55112e-17
538 1 65.8271 118.257 -5.55112e-17
539 2 34.8431 141.5 -5.55112e-17
540 1 151.569 73.7171 -5.55112e-17
541 1 90.2395 196.024 -5.55112e-17
542 1 179.422 104.453 -5.55112e-17
543 2 88.8678 113.479 -5.55112e-17
544 1 49.5253 214.234 -5.55112e-17
545 1 209.683 26.6022 -5.55112e-17
546 2 24.2887 204.198 -5.55112e-17
547 1 116.252 207.441 -5.55112e-17
548 1 39.0412 18.683 -5.55112e-17
549 2 9.04024 156.995 -5.55112e-17
550 2 128.548 151.856 -5.55112e-17
551 2 145.344 186.195 -5.55112e-17
552 1 82.5985 125.613 -5.55112e-17
553 2 86.3447 52.916 -5.55112e-17
554 2 152.906 156.986 -5.55112e-17
555 2 28.0248 45.4187 -5.55112e-17
556 1 127.366 51.5972 -5.55112e-17
557 1 162.182 144.364 -5.55112e-17
558 1 15.785 104.898 -5.55112e-17
559 2 134.829 204.705 -5.55112e-17
560 2 77.8541 211.88 -5.55112e-17
561 2 69.9511 75.8972 -5.55112e-17
562 2 69.2078 43.0131 -5.55112e-17
563 1 5.83154 129.058 -5.55112e-17
564 2 34.1869 37.6887 -5.55112e-17
565 2 201.882 62.7273 -5.55112e-17
566 2 127.905 137.945 -5.55112e-17
567 1 39.3371 75.4092 -5.55112e-17
568 1 78.8612 194.719 -5.55112e-17
569 2 48.3326 180.875 -5.55112e-17
570 2 128.375 179.475 -5.55112e-17
571 2 102.241 58.2993 -5.55112e-17
572 1 129.624 114.756 -5.55112e-17
573 2 210.6 22.1872 -5.55112e-17
574 2 105.884 213.019 -5.55112e-17
575 1 205.893 97.0687 -5.55112e-17
576 1 189.585 42.6822 -5.55112e-17
577 1 79.7525 197.794 -5.55112e-17
578 1 96.4515 63.4181 -5.55112e-17
579 2 210.106 207.278 -5.55112e-17
580 1 183.505 185.861 -5.55112e-17
581 1 182.546 99.3791 -5.55112e-17
582 2 165.999 138.927 -5.55112e-17
583 2 97.3998 36.5464 -5.55112e-17
584 2 35.5115 6.44555 -5.55112e-17
585 1 134.447 53.5037 -5.55112e-17
586 1 75.7421 105.381 -5.55112e-17
587 1 187.895 11.665 -5.55112e-17
588 2 5.02952 32.7096 -5.55112e-17
589 1 118.423 159.514 -5.55112e-17
590 2 217.907 218.515 -5.55112e-17
591 2 191.118 72.1325 -5.55112e-17
592 1 78.95 185.96 -5.55112e-17
593 1 160.209 51.9612 -5.55112e-17
594 1 21.044 3.78542 -5.55112e-17
595 1 51.9924 174.882 -5.55112e-17
596 2 53.1454 172.571 -5.55112e-17
597 2 213.339 154.748 -5.55112e-17
598 2 49.7348 131.526 -5.55112e-17
599 2 177.34 138.153 -5.55112e-17
600 2 109.521 105.714 -5.55112e-17
601 1 104.812 196.464 -5.55112e-17
602 1 169.757 36.0047 -5.55112e-17
603 2 216.087 176.365 -5.55112e-17
604 1 92.1483 8.20424 -5.55112e-17
605 2 92.2921 209.968 -5.55112e-17
606 2 55.2436 6.14473 -5.55112e-17
607 2 207.365 51.9242 -5.55112e-17
608 2 86.4621 98.0859 -5.55112e-17
609 1 166.999 149.978 -5.55112e-17
610 2 144.665 76.2005 -5.55112e-17
611 1 169.075 205.165 -5.55112e-17
612 1 207.424 31.3254 -5.55112e-17
613 2 82.2145 167.763 -5.55112e-17
614 1 215.62 76.1489 -5.55112e-17
615 1 72.9972 50.2132 -5.55112e-17
616 2 190.239 144.29 -5.55112e-17
617 1 50.6773 155.881 -5.55112e-17
618 1 161.695 161.262 -5.55112e-17
619 1 168.605 178.186 -5.55112e-17
620 2 161.835 132.369 -5.55112e-17
621 2 207.963 116.178 -5.55112e-17
622 2 153.963 181.036 -5.55112e-17
623 2 51.7514 149.888 -5.55112e-17
624 1 130.026 116.692 -5.55112e-17
625 2 98.4725 204.786 -5.55112e-17
626 1 57.3263 194.844 -5.55112e-17
627 2 8.1361 137.192 -5.55112e-17
628 1 49.8294 101.215 -5.55112e-17
629 1 140.59 162.692 -5.55112e-17
630 2 115.509 109.585 -5.55112e-17
631 2 27.7952 80.6658 -5.55112e-17
632 2 210.879 92.5 -5.55112e-17
633 2 96.8218 141.881 -5.55112e-17
634 2 41.3519 189.089 -5.55112e-17
635 2 211.881 218.014 -5.55112e-17
636 1 79.8505 150.285 -5.55112e-17
637 1 92.2262 160.766 -5.55112e-17
638 1 129.007 79.6185 -5.55112e-17
639 2 126.132 9.77181 -5.55112e-17
640 2 69.1152 167.678 -5.55112e-17
641 1 199.49 20.3762 -5.55112e-17
642 2 127.376 182.286 -5.55112e-17
643 1 121.642 77.887 -5.55112e-17
644 2 55.074 158.8 -5.55112e-17
645 2 48.4319 30.0509 -5.55112e-17
646 1 84.4306 75.2189 -5.55112e-17
647 2 120.506 136.952 -5.55112e-17
648 2 142.4 70.3803 -5.55112e-17
649 1 74.2777 208.543 -5.55112e-17
650 1 134.907 211.986 -5.55112e-17
651 1 43.8518 132.029 -5.55112e-17
652 2 4.01502 91.755 -5.55112e-17
653 2 9.00415 119.257 -5.55112e-17
654 1 126.469 199.179 -5.55112e-17
655 1 9.84684 154.672 -5.55112e-17
656 1 130.777 200.441 -5.55112e-17
657 1 50.877 179.887 -5.55112e-17
658 2 9.18931 100.485 -5.55112e-17
659 2 91.3764 86.0328 -5.55112e-17
660 1 24.3533 37.8884 -5.55112e-17
661 2 114.216 153.271 -5.55112e-17
662 2 47.6459 152.491 -5.55112e-17
663 1 21.8929 194.401 -5.55112e-17
664 1 178.562 102.079 -5.55112e-17
665 1 70.5334 37.3819 -5.55112e-17
666 1 165.052 217.549 -5.55112e-17
667 1 216.139 36.4242 -5.55112e-17
668 1 198.85 202.595 -5.55112e-17
669 1 157.445 142.808 -5.55112e-17
670 2 192.797 74.4889 -5.55112e-17
671 1 113.929 183.757 -5.55112e-17
672 1 121.682 162.695 -5.55112e-17
673 2 67.7083 1.80473 -5.55112e-17
674 2 31.0013 180.458 -5.55112e-17
675 2 149.306 10.6826 -5.55112e-17
676 1 168.47 29.4389 -5.55112e-17
677 2 77.5872 183.699 -5.55112e-17
678 1 4.93951 112.586 -5.55112e-17
679 1 193.531 88.3595 -5.55112e-17
680 2 177.268 77.4902 -5.55112e-17
681 1 160.411 112.271 -5.55112e-17
682 1 164.488 26.6874 -5.55112e-17
683 2 183.101 5.30674 -5.55112e-17
684 1 120.772 75.4167 -5.55112e-17
685 1 4.74646 204.472 -5.55112e-17
686 1 155.63 54.8526 -5.55112e-17
687 1 26.9951 106.289 -5.55112e-17
688 1 113.404 140.632 -5.55112e-17
689 2 141.648 142.817 -5.55112e-17
690 1 141.165 67.8446 -5.55112e-17
691 2 48.15 120.352 -5.55112e-17
692 2 30.3916 144.785 -5.55112e-17
693 1 158.179 16.2329 -5.55112e-17
694 2 96.7524 80.6289 -5.55112e-17
695 2 86.8002 155.826 -5.55112e-17
696 2 211.199 97.8784 -5.55112e-17
697 1 163.272 2.41148 -5.55112e-17
698 2 141.324 4.92969 -5.55112e-17
699 1 88.9227 123.116 -5.55112e-17
700 2 44.5047 27.3208 -5.55112e-17
701 2 50.7318 122.084 -5.55112e-17
702 1 138.704 150.279 -5.55112e-17
703 1 156.865 150.28 -5.55112e-17
704 1 154.796 169.619 -5.55112e-17
705 1 103.451 98.7645 -5.55112e-17
706 1 149.93 170.058 -5.55112e-17
707 1 163.688 128.087 -5.55112e-17
708 2 123.42 122.646 -5.55112e-17
709 1 53.9304 111.866 -5.55112e-17
710 2 138.793 101.898 -5.55112e-17
711 2 89.9404 138.697 -5.55112e-17
712 1 96.7923 25.5939 -5.55112e-17
713 1 135.27 50.6282 -5.55112e-17
714 2 29.922 162.632 -5.55112e-17
715 2 141.298 31.3409 -5.55112e-17
716 1 124.397 206.891 -5.55112e-17
717 1 165.032 156.731 -5.55112e-17
718 2 156.283 99.6553 -5.55112e-17
719 1 147.577 125.469 -5.55112e-17
720 2 173.523 126.559 -5.55112e-17
721 2 188.285 19.9005 -5.55112e-17
722 2 26.5955 69.2646 -5.55112e-17
723 2 56.1502 34.0643 -5.55112e-17
724 2 151.475 5.85439 -5.55112e-17
725 2 150.701 202.351 -5.55112e-17
726 2 83.2862 213.272 -5.55112e-17
727 2 118.656 152.244 -5.55112e-17
728 1 99.1544 5.44977 -5.55112e-17
729 2 146.732 40.7079 -5.55112e-17
730 2 180.459 59.3417 -5.55112e-17
731 1 127.434 143.024 -5.55112e-17
732 2 28.2304 51.0802 -5.55112e-17
733 2 173.15 70.0599 -5.55112e-17
734 2 158.861 172.453 -5.55112e-17
735 2 8.70245 3.64009 -5.55112e-17
736 1 94.9381 108.459 -5.55112e-17
737 2 151.293 175.326 -5.55112e-17
738 2 205.087 198.412 -5.55112e-17
739 2 160.161 153.977 -5.55112e-17
740 2 7.78945 195.297 -5.55112e-17
741 2 117.02 209.912 -5.55112e-17
742 1 177.807 58.6875 -5.55112e-17
743 2 186.919 45.174 -5.55112e-17
744 1 118.724 207.357 -5.55112e-17
745 2 111.073 189.332 -5.55112e-17
746 1 173.02 22.3611 -5.55112e-17
747 1 126.798 166.628 -5.55112e-17
748 2 142.333 121.044 -5.55112e-17
749 1 50.4317 194.179 -5.55112e-17
750 1 57.933 6.20752 -5.55112e-17
751 1 67.7895 185.736 -5.55112e-17
752 2 197.422 212.659 -5.55112e-17
753 1 75.665 77.6295 -5.55112e-17
754 2 34.4747 164.867 -5.55112e-17
755 1 84.8127 5.3869 -5.55112e-17
756 2 217.323 46.2454 -5.55112e-17
757 1 25.2043 198.798 -5.55112e-17
758 2 212.345 197.422 -5.55112e-17
759 1 157.35 97.1785 -5.55112e-17
760 1 198.729 39.3156 -5.55112e-17
761 2 5.96863 76.1635 -5.55112e-17
762 1 4.55445 165.751 -5.55112e-17
763 2 40.8561 36.5938 -5.55112e-17
764 2 95.6691 205.045 -5.55112e-17
765 1 1.97646 194.337 -5.55112e-17
766 2 5.85261 47.2096 -5.55112e-17
767 2 99.0825 96.6558 -5.55112e-17
768 2 212.747 80.2979 -5.55112e-17
769 2 202.79 189.048 -5.55112e-17
770 1 49.4067 137.055 -5.55112e-17
771 1 142.001 23.7051 -5.55112e-17
772 1 146.711 211.351 -5.55112e-17
773 2 44.5013 3.53587 -5.55112e-17
774 1 194.587 11.9383 -5.55112e-17
775 1 65.7144 151.435 -5.55112e-17
776 2 63.6304 153.365 -5.55112e-17
777 2 188.693 82.6325 -5.55112e-17
778 1 18.1605 201.101 -5.55112e-17
779 1 72.6649 36.9943 -5.55112e-17
780 2 32.52 10.7236 -5.55112e-17
781 1 211.344 54.0096 -5.55112e-17
782 2 131.692 110.453 -5.55112e-17
783 1 132.839 210.189 -5.55112e-17
784 2 89.2112 103.911 -5.55112e-17
785 1 125.3 168.408 -5.55112e-17
786 1 13.2464 2.55146 -5.55112e-17
787 2 117.319 166.305 -5.55112e-17
788 2 44.9998 208.189 -5.55112e-17
789 2 96.9062 72.6909 -5.55112e-17
790 2 202.542 33.5593 -5.55112e-17
791 2 141.564 92.8855 -5.55112e-17
792 1 11.5142 101.044 -5.55112e-17
793 1 150.118 109.42 -5.55112e-17
794 2 102.906 190.842 -5.55112e-17
795 2 189.297 203.404 -5.55112e-17
796 1 23.3311 165.008 -5.55112e-17
797 1 168.911 97.593 -5.55112e-17
798 1 20.4185 200.447 -5.55112e-17
799 2 201.369 4.04608 -5.55112e-17
800 1 200.152 193.294 -5.55112e-17
801 2 149.716 26.3136 -5.55112e-17
802 1 44.9118 55.9039 -5.55112e-17
803 1 149.316 40.8338 -5.55112e-17
804 1 85.7828 115.392 -5.55112e-17
805 2 163.125 191.838 -5.55112e-17
806 2 54.7803 130.744 -5.55112e-17
807 2 108.269 173.745 -5.55112e-17
808 2 40.0912 152.588 -5.55112e-17
809 1 67.5811 163.744 -5.55112e-17
810 2 116.301 25.2182 -5.55112e-17
811 2 183.566 122.714 -5.55112e-17
812 1 83.4832 79.2925 -5.55112e-17
813 1 26.2987 90.3229 -5.55112e-17
814 1 159.93 109.804 -5.55112e-17
815 1 104.6 110.229 -5.55112e-17
816 1 210.147 216.085 -5.55112e-17
817 2 42.8681 121.391 -5.55112e-17
818 2 129.068 10.8723 -5.55112e-17
819 2 33.8537 159.128 -5.55112e-17
820 1 75.075 68.2392 -5.55112e-17
821 1 110.687 212.273 -5.55112e-17
822 2 72.7764 176.974 -5.55112e-17
823 1 28.5234 0.529573 -5.55112e-17
824 1 44.2423 198.137 -5.55112e-17
825 1 217.754 116.785 -5.55112e-17
826 2 131.167 97.0371 -5.55112e-17
827 2 12.1635 29.9252 -5.55112e-17
828 1 119.872 70.3019 -5.55112e-17
829 2 118.551 2.89156 -5.55112e-17
830 1 156.892 163.954 -5.55112e-17
831 2 50.2929 8.12852 -5.55112e-17
832 2 100.834 218.773 -5.55112e-17
833 2 81.4362 94.2449 -5.55112e-17
834 1 52.0202 215.186 -5.55112e-17
835 1 65.9397 45.3437 -5.55112e-17
836 1 68.961 160.176 -5.55112e-17
837 2 154.574 45.5934 -5.55112e-17
838 2 146.149 51.7884 -5.55112e-17
839 1 46.2183 218.472 -5.55112e-17
840 2 91.5606 91.5895 -5.55112e-17
841 2 125.46 133.403 -5.55112e-17
842 1 97.581 94.5255 -5.55112e-17
843 1 217.204 166.77 -5.55112e-17
844 2 92.6059 215.245 -5.55112e-17
845 1 107.394 100.834 -5.55112e-17
846 2 102.902 41.613 -5.55112e-17
847 1 203.574 36.3572 -5.55112e-17
848 2 23.2935 156.958 -5.55112e-17
849 1 170.383 155.623 -5.55112e-17
850 2 110.027 194.717 -5.55112e-17
851 2 138.311 77.3709 -5.55112e-17
852 1 212.323 100.193 -5.55112e-17
853 1 45.1405 214.121 -5.55112e-17
854 2 75.342 90.3234 -5.55112e-17
855 2 26.8815 41.985 -5.55112e-17
856 1 214.929 131.589 -5.55112e-17