ITEM: TIMESTEP
0
ITEM: NUMBER OF ATOMS
7200
ITEM: BOX BOUNDS xy xz yz pp pp pp
0.0000000000000000e+00 2.1900000000000000e+02 0.0000000000000000e+00
0.0000000000000000e+00 2.1900000000000000e+02 0.0000000000000000e+00
-3.6499999999999999e-01 3.6499999999999999e-01 0.0000000000000000e+00
ITEM: ATOMS id type x y z
1 1 183.055 12.8163 -5.55112e-17
2 2 187.244 185.921 -5.55112e-17
3 2 144.846 189.255 -5.55112e-17
4 1 122.638 109.909 -5.55112e-17
5 1 101.913 125.922 -5.55112e-17
6 1 105.266 25.4121 -5.55112e-17
7 2 162.452 125.136 -5.55112e-17
8 2 71.1286 26.3235 -5.55112e-17
9 1 22.554 214.755 -5.55112e-17
10 2 52.5694 166.66 -5.55112e-17
11 2 210.299 100.742 -5.55112e-17
12 1 35.0985 196.118 -5.55112e-17
13 2 194.864 53.2474 -5.55112e-17
14 1 57.2253 182.644 -5.55112e-17
15 2 193.173 218.705 -5.55112e-17
16 2 218.521 85.8517 -5.55112e-17
17 1 68.3997 74.9042 -5.55112e-17
18 2 10.4679 172.729 -5.55112e-17
19 1 93.1575 130.362 -5.55112e-17
20 1 72.2265 11.4072 -5.55112e-17
21 1 157.288 8.44347 -5.55112e-17
22 2 31.4385 209.45 -5.55112e-17
23 2 41.5955 208.448 -5.55112e-17
24 2 218.018 103.086 -5.55112e-17
25 2 26.8761 206.891 -5.55112e-17
26 2 149.386 27.3185 -5.55112e-17
27 1 217.629 162.41 -5.55112e-17
28 2 54.1842 155.082 -5.55112e-17
29 2 83.4409 5.02287 -5.55112e-17
30 2 132.447 36.9526 -5.55112e-17
31 2 156.07 83.793 -5.55112e-17
32 1 48.4185 108.692 -5.55112e-17
33 2 144.909 87.4203 -5.55112e-17
34 2 17.3749 95.6024 -5.55112e-17
35 2 126.743 11.6217 -5.55112e-17
36 1 161.335 145.93 -5.55112e-17
37 1 133.344 184.97 -5.55112e-17
38 2 208.898 158.315 -5.55112e-17
39 1 8.18932 37.7917 -5.55112e-17
40 2 196.675 72.8256 -5.55112e-17
41 1 192.01 72.2303 -5.55112e-17
42 1 55.4025 58.8198 -5.55112e-17
43 1 209.867 132.238 -5.55112e-17
44 1 155.419 187.838 -5.55112e-17
45 2 159.515 60.8671 -5.55112e-17
46 1 124.925 192.803 -5.55112e-17
47 2 88.1345 76.0975 -5.55112e-17
48 2 154.27 129.094 -5.55112e-17
49 1 194.237 199.385 -5.55112e-17
50 2 25.7044 46.7113 -5.55112e-17
51 1 186.56 2.96001 -5.55112e-17
52 1 113.042 44.9827 -5.55112e-17
53 2 56.1883 199.73 -5.55112e-17
54 1 37.0361 5.59265 -5.55112e-17
55 2 53.4908 141.526 -5.55112e-17
56 1 31.6752 132.099 -5.55112e-17
57 2 57.6672 133.304 -5.55112e-17
58 1 181.729 35.9542 -5.55112e-17
59 1 157.428 85.8625 -5.55112e-17
60 2 206.569 59.0643 -5.55112e-17
61 1 155.617 164.029 -5.55112e-17
62 1 109.01 113.27 -5.55112e-17
63 2 109.454 39.7225 -5.55112e-17
64 1 31.8889 20.2961 -5.55112e-17
65 2 153.432 149.005 -5.55112e-17
66 2 13.2578 154.881 -5.55112e-17
67 2 182.82 107.294 -5.55112e-17
68 1 136.591 83.2421 -5.55112e-17
69 2 109.188 169.095 -5.55112e-17
70 1 141.155 98.1434 -5.55112e-17
71 1 198.205 147.53 -5.55112e-17
72 2 44.6764 157.104 -5.55112e-17
73 2 189.984 182.462 -5.55112e-17
74 2 108.412 68.052 -5.55112e-17
75 1 14.5371 136.512 -5.55112e-17
76 2 138.221 206.542 -5.55112e-17
77 2 168.933 15.2825 -5.55112e-17
78 1 92.5941 209.008 -5.55112e-17
79 2 61.056 76.2251 -5.55112e-17
80 1 51.5174 26.5669 -5.55112e-17
81 1 181.603 210.916 -5.55112e-17
82 1 173.831 41.2276 -5.55112e-17
83 1 71.6913 91.4135 -5.55112e-17
84 2 141.334 179.449 -5.55112e-17
85 2 149.383 144.147 -5.55112e-17
86 2 51.271 68.2779 -5.55112e-17
87 2 38.0015 83.277 -5.55112e-17
88 1 80.6127 157.722 -5.55112e-17
89 2 199.533 105.591 -5.55112e-17
90 2 126.358 36.0208 -5.55112e-17
91 2 11.1748 183.089 -5.55112e-17
92 1 27.8116 214.943 -5.55112e-17
93 2 109.903 155.16 -5.55112e-17
94 2 112.896 144.708 -5.55112e-17
95 1 211.724 51.8525 -5.55112e-17
96 2 32.5513 54.4447 -5.55112e-17
97 2 4.12268 211.691 -5.55112e-17
98 2 35.5586 185.021 -5.55112e-17
99 1 109.599 10.6882 -5.55112e-17
100 2 158.698 65.7033 -5.55112e-17
101 1 184.183 109.685 -5.55112e-17
102 1 66.3696 164.273 -5.55112e-17
103 2 204.829 100.611 -5.55112e-17
104 2 103.93 75.3367 -5.55112e-17
105 1 160.964 58.6628 -5.55112e-17
106 1 189.757 53.1243 -5.55112e-17
107 1 8.39199 106.374 -5.55112e-17
108 1 69.9155 210.163 -5.55112e-17
109 2 218.128 39.0712 -5.55112e-17
110 2 145.152 29.1792 -5.55112e-17
111 1 52.8154 92.6248 -5.55112e-17
112 2 8.58165 50.6837 -5.55112e-17
113 1 134.361 10.7291 -5.55112e-17
114 1 92.2898 83.4246 -5.55112e-17
115 2 30.8478 60.7098 -5.55112e-17
116 2 184.264 15.2521 -5.55112e-17
117 1 163.064 110.844 -5.55112e-17
118 1 83.0554 94.3641 -5.55112e-17
119 2 99.5823 139.88 -5.55112e-17
120 2 201.618 58.0721 -5.55112e-17
121 1 204.886 138.996 -5.55112e-17
122 2 142.789 129.746 -5.55112e-17
123 2 6.92981 129.477 -5.55112e-17
124 1 159.832 200.524 -5.55112e-17
125 1 85.9075 196.801 -5.55112e-17
126 2 94.5402 84.3956 -5.55112e-17
127 2 208.695 110.889 -5.55112e-17
128 1 121.569 104.834 -5.55112e-17
129 1 144.701 194.384 -5.55112e-17
130 2 123.798 55.9673 -5.55112e-17
131 1 134.141 61.0811 -5.55112e-17
132 1 139.644 21.7716 -5.55112e-17
133 1 180.895 105.24 -5.55112e-17
134 1 80.789 191.736 -5.55112e-17
135 2 176.858 62.4157 -5.55112e-17
136 1 190.154 118.601 -5.55112e-17
137 1 55.7352 23.4989 -5.55112e-17
138 2 157.191 158.995 -5.55112e-17
139 1 132.374 11.7279 -5.55112e-17
140 1 145.08 207.929 -5.55112e-17
141 1 51.6973 70.904 -5.55112e-17
142 1 214.31 194.596 -5.55112e-17
143 1 26.4586 25.4328 -5.55112e-17
144 1 46.5944 97.9771 -5.55112e-17
145 2 192.928 78.9409 -5.55112e-17
146 1 156.961 130 -5.55112e-17
147 2 16.2251 134.309 -5.55112e-17
148 1 24.6725 132.877 -5.55112e-17
149 1 147.591 190.224 -5.55112e-17
150 2 65.3685 51.7227 -5.55112e-17
151 1 132.074 137.892 -5.55112e-17
152 1 164.765 160.44 -5.55112e-17
153 2 123.953 130.413 -5.55112e-17
154 1 184.439 52.3947 -5.55112e-17
155 2 203.53 39.8073 -5.55112e-17
156 2 112.543 193.647 -5.55112e-17
157 2 167.688 25.2744 -5.55112e-17
158 2 27.95 8.02144 -5.55112e-17
159 2 12.4531 158.429 -5.55112e-17
160 2 119.238 53.1499 -5.55112e-17
161 2 129.466 138.691 -5.55112e-17
162 1 21.8287 67.631 -5.55112e-17
163 1 189.487 33.831 -5.55112e-17
164 2 108.62 134.967 -5.55112e-17
165 1 49.6862 72.4553 -5.55112e-17
166 2 7.72531 201.685 -5.55112e-17
167 1 105.415 165.874 -5.55112e-17
168 1 211.201 103.243 -5.55112e-17
169 2 101.057 199.481 -5.55112e-17
170 1 65.7671 206.427 -5.55112e-17
171 1 137.229 92.4705 -5.55112e-17
172 1 199.368 199.61 -5.55112e-17
173 1 40.3514 201.128 -5.55112e-17
174 2 38.0511 172.661 -5.55112e-17
175 2 49.8507 200.812 -5.55112e-17
176 1 119.434 151.771 -5.55112e-17
177 2 107.255 12.0596 -5.55112e-17
178 1 25.2352 7.73225 -5.55112e-17
179 2 106.997 197.336 -5.55112e-17
180 1 47.7268 74.0815 -5.55112e-17
181 1 16.2023 118.978 -5.55112e-17
182 1 110.658 89.3015 -5.55112e-17
183 1 63.9135 168.474 -5.55112e-17
184 2 157.452 25.6643 -5.55112e-17
185 2 189.907 78.1063 -5.55112e-17
186 2 73.8385 206.433 -5.55112e-17
187 2 161.765 202.293 -5.55112e-17
188 2 62.3501 31.9454 -5.55112e-17
189 1 188.649 60.4077 -5.55112e-17
190 1 196.73 55.1729 -5.55112e-17
191 2 35.7877 104.664 -5.55112e-17
192 2 90.8749 62.0706 -5.55112e-17
193 1 108.141 166.319 -5.55112e-17
194 1 26.7384 5.77473 -5.55112e-17
195 2 58.0672 119.698 -5.55112e-17
196 1 0.0781841 218.565 -5.55112e-17
197 2 118.321 46.9162 -5.55112e-17
198 2 206.313 27.1153 -5.55112e-17
199 2 97.6015 173.82 -5.55112e-17
200 2 98.4815 31.4652 -5.55112e-17
201 2 102.128 123.248 -5.55112e-17
202 1 44.0224 34.7991 -5.55112e-17
203 1 18.6454 42.7101 -5.55112e-17
204 2 47.1006 76.4434 -5.55112e-17
205 2 181.343 178.253 -5.55112e-17
206 2 170.666 127.877 -5.55112e-17
207 1 75.0862 186.748 -5.55112e-17
208 2 134.675 53.961 -5.55112e-17
209 2 32.9987 142.255 -5.55112e-17
210 1 181.786 112.852 -5.55112e-17
211 1 209.049 35.0777 -5.55112e-17
212 1 208.571 84.9265 -5.55112e-17
213 1 127.925 123.565 -5.55112e-17
214 2 11.765 11.0948 -5.55112e-17
215 1 3.66997 139.631 -5.55112e-17
216 1 52.0475 50.2296 -5.55112e-17
217 1 164.46 61.5859 -5.55112e-17
218 2 200.859 121.38 -5.55112e-17
219 2 136.429 189.598 -5.55112e-17
220 1 119.508 1.06908 -5.55112e-17
221 2 82.852 7.84695 -5.55112e-17
222 1 158.251 156.181 -5.55112e-17
223 1 45.7615 120.705 -5.55112e-17
224 2 145.704 71.1109 -5.55112e-17
225 2 173.96 167.091 -5.55112e-17
226 1 196.621 10.3306 -5.55112e-17
227 2 203.113 214.377 -5.55112e-17
228 2 117.062 61.807 -5.55112e-17
229 1 43.1036 21.1177 -5.55112e-17
230 1 5.1482 56.7693 -5.55112e-17
231 2 137.045 160.888 -5.55112e-17
232 1 18.3838 212.315 -5.55112e-17
233 2 75.3226 195.562 -5.55112e-17
234 1 0.972826 60.1247 -5.55112e-17
235 1 150.41 106.411 -5.55112e-17
236 2 153.473 52.7701 -5.55112e-17
237 2 98.9458 204.315 -5.55112e-17
238 2 94.8563 140.465 -5.55112e-17
239 1 36.2887 215.137 -5.55112e-17
240 1 129.221 90.8915 -5.55112e-17
241 2 3.71554 124.431 -5.55112e-17
242 1 194.139 27.8381 -5.55112e-17
243 2 214.506 130.576 -5.55112e-17
244 2 36.1532 190.26 -5.55112e-17
245 1 173.985 21.0643 -5.55112e-17
246 2 90.0099 84.6186 -5.55112e-17
247 2 198.848 150.084 -5.55112e-17
248 1 38.6614 26.5078 -5.55112e-17
249 1 131.778 108.161 -5.55112e-17
250 1 134.686 27.6409 -5.55112e-17
251 2 102.564 43.2425 -5.55112e-17
252 1 110.404 157.744 -5.55112e-17
253 2 94.8253 102.144 -5.55112e-17
254 2 179.234 205.4 -5.55112e-17
255 2 126.029 48.1472 -5.55112e-17
256 1 3.61553 180.202 -5.55112e-17
257 2 33.3341 194.098 -5.55112e-17
258 1 211.011 80.9971 -5.55112e-17
259 2 162.073 140.529 -5.55112e-17
260 1 41.615 191.22 -5.55112e-17
261 2 142.912 176.775 -5.55112e-17
262 2 186.515 110.471 -5.55112e-17
263 2 94.7272 172.934 -5.55112e-17
264 1 199.441 36.5189 -5.55112e-17
265 1 157.595 186.213 -5.55112e-17
266 1 96.0238 198.781 -5.55112e-17
267 2 115.508 16.7869 -5.55112e-17
268 1 218.918 48.7471 -5.55112e-17
269 2 10.4518 113.343 -5.55112e-17
270 2 184.678 148.517 -5.55112e-17
271 2 187.714 94.2698 -5.55112e-17
272 1 54.8516 30.6395 -5.55112e-17
273 1 70.8682 83.7682 -5.55112e-17
274 1 39.3466 193.623 -5.55112e-17
275 1 146.701 110 -5.55112e-17
276 1 199.036 74.2111 -5.55112e-17
277 1 100.942 37.5372 -5.55112e-17
278 2 60.9636 145.242 -5.55112e-17
279 2 159.901 86.3923 -5.55112e-17
280 1 116.802 211.113 -5.55112e-17
281 2 165.671 177.369 -5.55112e-17
282 2 75.1542 127.755 -5.55112e-17
283 2 218.649 150.868 -5.55112e-17
284 1 125.613 113.168 -5.55112e-17
285 1 73.503 165.555 -5.55112e-17
286 2 30.1761 179.928 -5.55112e-17
287 2 94.9349 110.11 -5.55112e-17
288 1 104.763 122.956 -5.55112e-17
289 2 194.25 56.4469 -5.55112e-17
290 1 98.5756 28.2924 -5.55112e-17
291 2 98.1619 184.253 -5.55112e-17
292 1 76.8034 125.799 -5.55112e-17
293 1 158.686 167.371 -5.55112e-17
294 1 29.6067 177.342 -5.55112e-17
295 2 46.8962 145.748 -5.55112e-17
296 1 193.519 177.9 -5.55112e-17
297 1 1.80042 18.1954 -5.55112e-17
298 2 30.5503 140.411 -5.55112e-17
299 1 177.735 55.3779 -5.55112e-17
300 2 186.347 193.537 -5.55112e-17
301 2 172.175 19.0787 -5.55112e-17
302 2 163.264 89.3602 -5.55112e-17
303 1 2.12379 151.491 -5.55112e-17
304 1 124.152 105.272 -5.55112e-17
305 1 92.6116 177.682 -5.55112e-17
306 2 83.7589 17.966 -5.55112e-17
307 2 150.339 167.313 -5.55112e-17
308 2 142.1 21.95 -5.55112e-17
309 1 70.8537 72.501 -5.55112e-17
310 1 187.554 188.668 -5.55112e-17
311 1 151.054 108.869 -5.55112e-17
312 2 134.673 13.3213 -5.55112e-17
313 2 154.728 17.374 -5.55112e-17
314 1 189.798 58.455 -5.55112e-17
315 2 56.9603 107.567 -5.55112e-17
316 1 97.5496 33.938 -5.55112e-17
317 1 132.788 175.764 -5.55112e-17
318 1 216.664 135.757 -5.55112e-17
319 2 73.834 201.309 -5.55112e-17
320 1 214.18 47.957 -5.55112e-17
321 1 52.8964 87.5715 -5.55112e-17
322 1 51.2501 148.263 -5.55112e-17
323 2 19.8519 138.517 -5.55112e-17
324 2 8.06118 95.9806 -5.55112e-17
325 2 216.173 13.15 -5.55112e-17
326 1 184.835 0.9453 -5.55112e-17
327 1 35.0836 47.652 -5.55112e-17
328 2 31.5593 191.644 -5.55112e-17
329 2 27.5913 78.8398 -5.55112e-17
330 2 153.533 38.5105 -5.55112e-17
331 2 187.238 67.7157 -5.55112e-17
332 2 121.196 114.485 -5.55112e-17
333 2 28.1464 150.972 -5.55112e-17
334 2 215.827 17.6206 -5.55112e-17
335 1 166.954 210.924 -5.55112e-17
336 2 28.0253 141.61 -5.55112e-17
337 2 42.5358 6.98703 -5.55112e-17
338 1 207.404 95.9381 -5.55112e-17
339 2 15.1368 151.942 -5.55112e-17
340 2 177.012 214.534 -5.55112e-17
341 2 101.214 61.1002 -5.55112e-17
342 2 175.858 169.54 -5.55112e-17
343 2 176.229 4.99755 -5.55112e-17
344 1 87.7922 108.837 -5.55112e-17
345 2 26.9534 212.489 -5.55112e-17
346 2 75.5171 73.1309 -5.55112e-17
347 1 147.482 99.0287 -5.55112e-17
348 1 181.249 3.93964 -5.55112e-17
349 2 172.863 69.9461 -5.55112e-17
350 2 78.266 178.854 -5.55112e-17
351 1 173.784 138.502 -5.55112e-17
352 1 213.16 163.97 -5.55112e-17
353 2 140.712 131.947 -5.55112e-17
354 2 191.536 179.765 -5.55112e-17
355 1 215.908 157.09 -5.55112e-17
356 2 112.497 0.84496 -5.55112e-17
357 1 127.32 192.669 -5.55112e-17
358 1 77.7923 25.6669 -5.55112e-17
359 1 35.089 143.846 -5.55112e-17
360 1 57.0008 13.2693 -5.55112e-17
361 2 196.984 67.6007 -5.55112e-17
362 2 172.296 94.2768 -5.55112e-17
363 1 78.344 215.817 -5.55112e-17
364 2 217.218 46.3865 -5.55112e-17
365 1 5.97945 164.346 -5.55112e-17
366 1 82.8904 173.165 -5.55112e-17
367 1 161.046 103.991 -5.55112e-17
368 1 20.7362 164.376 -5.55112e-17
369 2 81.419 143.283 -5.55112e-17
370 1 10.0286 136.175 -5.55112e-17
371 2 71.5511 111.413 -5.55112e-17
372 1 88.2612 6.14469 -5.55112e-17
373 2 118.406 208.699 -5.55112e-17
374 2 177.109 101.254 -5.55112e-17
375 1 136.412 25.8417 -5.55112e-17
376 1 121.737 147.163 -5.55112e-17
377 2 96.1166 74.0943 -5.55112e-17
378 2 215.156 107.626 -5.55112e-17
379 2 171.979 182.993 -5.55112e-17
380 1 199.969 33.7497 -5.55112e-17
381 1 174.612 67.7155 -5.55112e-17
382 1 122.495 27.1358 -5.55112e-17
383 1 111.515 80.7014 -5.55112e-17
384 2 54.3945 100.737 -5.55112e-17
385 1 66.206 149.02 -5.55112e-17
386 2 180.93 171.023 -5.55112e-17
387 1 34.9531 107.121 -5.55112e-17
388 1 143.684 164.128 -5.55112e-17
389 2 215.985 121.564 -5.55112e-17
390 1 103.829 65.1567 -5.55112e-17
391 1 202.912 217.169 -5.55112e-17
392 2 1.9877 101.526 -5.55112e-17
393 2 193.639 175.247 -5.55112e-17
394 1 35.9941 203.083 -5.55112e-17
395 1 19.4081 214.417 -5.55112e-17
396 2 75.9792 88.6603 -5.55112e-17
397 1 65.5003 39.3815 -5.55112e-17
398 2 165.571 111.015 -5.55112e-17
399 2 196.817 106.744 -5.55112e-17
400 2 122.485 69.2236 -5.55112e-17
401 2 83.5118 191.562 -5.55112e-17
402 1 85.0798 43.0159 -5.55112e-17
403 1 69.6005 116.607 -5.55112e-17
404 2 112.792 14.0963 -5.55112e-17
405 1 52.8968 188.998 -5.55112e-17
406 2 0.79407 98.0375 -5.55112e-17
407 1 123.85 78.8796 -5.55112e-17
408 1 130.055 28.958 -5.55112e-17
409 2 214.266 116.311 -5.55112e-17
410 2 70.7342 158.717 -5.55112e-17
411 1 135.936 96.9394 -5.55112e-17
412 1 164.594 6.89352 -5.55112e-17
413 1 31.8057 85.4022 -5.55112e-17
414 2 192.973 202.025 -5.55112e-17
415 1 107.369 126.738 -5.55112e-17
416 1 176.288 51.5089 -5.55112e-17
417 2 107.503 129.351 -5.55112e-17
418 2 34.4829 178.953 -5.55112e-17
419 2 195.515 91.5867 -5.55112e-17
420 2 113.413 47.4642 -5.55112e-17
421 1 70.387 30.8421 -5.55112e-17
422 1 34.4691 61.2317 -5.55112e-17
423 2 116.59 125.358 -5.55112e-17
424 2 39.4999 23.71 -5.55112e-17
425 2 117.019 150.981 -5.55112e-17
426 1 185.84 95.9683 -5.55112e-17
427 2 73.534 58.1411 -5.55112e-17
428 1 28.8964 174.715 -5.55112e-17
429 2 131.171 149.96 -5.55112e-17
430 2 111.42 104.23 -5.55112e-17
431 1 13.1613 8.62272 -5.55112e-17
432 2 173.928 3.54697 -5.55112e-17
433 1 181.79 194.129 -5.55112e-17
434 1 19.8206 204.154 -5.55112e-17
435 1 149.314 85.3253 -5.55112e-17
436 2 85.0378 198.908 -5.55112e-17
437 2 181.273 82.1876 -5.55112e-17
438 2 194.829 180.326 -5.55112e-17
439 2 91.7719 11.6842 -5.55112e-17
440 2 206.54 90.991 -5.55112e-17
441 1 130.598 167.261 -5.55112e-17
442 1 38.1937 104.668 -5.55112e-17
443 2 79.8087 81.9304 -5.55112e-17
444 1 204.36 105.188 -5.55112e-17
445 1 169.818 135.371 -5.55112e-17
446 2 182.895 151.148 -5.55112e-17
447 2 39.5364 40.1262 -5.55112e-17
448 2 206.619 175.288 -5.55112e-17
449 1 41.2414 176.827 -5.55112e-17
450 1 10.8722 126.487 -5.55112e-17
451 1 52.2203 210.959 -5.55112e-17
452 2 209.032 60.5355 -5.55112e-17
453 1 216.131 150.321 -5.55112e-17
454 1 3.44242 68.87 -5.55112e-17
455 2 81.6762 131.623 -5.55112e-17
456 1 84.3384 2.35824 -5.55112e-17
457 2 142.38 146.759 -5.55112e-17
458 2 153.116 134.438 -5.55112e-17
459 2 133.72 51.0026 -5.55112e-17
460 1 197.186 170.789 -5.55112e-17
461 1 111.965 128.492 -5.55112e-17
462 1 104.877 193.04 -5.55112e-17
463 2 107.818 1.68746 -5.55112e-17
464 2 16.4698 79.3137 -5.55112e-17
465 1 123.614 16.3807 -5.55112e-17
466 2 149.858 126.933 -5.55112e-17
467 2 65.584 133.319 -5.55112e-17
468 2 123.929 125.572 -5.55112e-17
469 2 58.6718 71.7171 -5.55112e-17
470 2 208.39 154.905 -5.55112e-17
471 2 211.679 210.993 -5.55112e-17
472 2 111.731 37.2194 -5.55112e-17
473 2 198.093 214.534 -5.55112e-17
474 2 85.1426 146.742 -5.55112e-17
475 1 164.348 182.346 -5.55112e-17
476 2 173.847 34.0567 -5.55112e-17
477 1 209.03 217.833 -5.55112e-17
478 1 48.6293 188.472 -5.55112e-17
479 2 3.75117 194.254 -5.55112e-17
480 1 83.3844 59.0239 -5.55112e-17
481 1 2.58347 209.301 -5.55112e-17
482 2 154.498 180.033 -5.55112e-17
483 1 134.635 209.888 -5.55112e-17
484 1 67.3899 135.377 -5.55112e-17
485 2 13.482 173.88 -5.55112e-17
486 1 132.339 72.5587 -5.55112e-17
487 1 12.7435 203.181 -5.55112e-17
488 1 50.1888 83.5017 -5.55112e-17
489 1 70.5696 109.117 -5.55112e-17
490 1 164.139 73.4083 -5.55112e-17
491 1 162.589 75.5781 -5.55112e-17
492 2 209.103 15.181 -5.55112e-17
493 1 93.8263 203.868 -5.55112e-17
494 2 76.5776 65.4935 -5.55112e-17
495 1 149.876 92.3587 -5.55112e-17
496 1 52.2408 123.542 -5.55112e-17
497 1 136.518 110.004 -5.55112e-17
498 2 145.671 38.9682 -5.55112e-17
499 2 177.499 118.342 -5.55112e-17
500 2 58.4393 35.5294 -5.55112e-17
501 2 14.5936 139.185 -5.55112e-17
502 2 190.275 126.492 -5.55112e-17
503 2 58.0465 63.8794 -5.55112e-17
504 2 98.6545 49.8857 -5.55112e-17
505 2 111.547 216.952 -5.55112e-17
506 1 206.989 6.02301 -5.55112e-17
507 2 50.2256 182.861 -5.55112e-17
508 1 141.012 59.2848 -5.55112e-17
509 1 209.729 47.5225 -5.55112e-17
510 1 195.28 104.38 -5.55112e-17
511 2 107.967 178.337 -5.55112e-17
512 1 11.5812 42.05 -5.55112e-17
513 2 88.651 183.076 -5.55112e-17
514 2 12.2955 89.388 -5.55112e-17
515 1 60.7754 99.01 -5.55112e-17
516 2 101.055 74.182 -5.55112e-17
517 1 32.7701 147.628 -5.55112e-17
518 2 9.92729 13.4094 -5.55112e-17
519 1 124.851 91.9571 -5.55112e-17
520 2 209.575 90.9711 -5.55112e-17
521 2 130.585 39.7207 -5.55112e-17
522 1 187.408 7.60134 -5.55112e-17
523 1 127.516 99.2944 -5.55112e-17
524 2 175.064 18.5121 -5.55112e-17
525 2 185.418 45.4611 -5.55112e-17
526 2 106.49 18.6928 -5.55112e-17
527 1 169.907 23.5113 -5.55112e-17
528 1 212.709 201.503 -5.55112e-17
529 2 105.143 179.222 -5.55112e-17
530 2 20.7271 88.262 -5.55112e-17
531 2 188.346 172.806 -5.55112e-17
532 1 80.8633 5.86601 -5.55112e-17
533 2 23.1927 157.887 -5.55112e-17
534 1 22.4161 168.524 -5.55112e-17
535 1 169.962 206.761 -5.55112e-17
536 2 17.9701 169.36 -5.55112e-17
537 1 142.404 28.9117 -5.55112e-17
538 1 68.4586 157.643 -5.55112e-17
539 2 80.6463 163.558 -5.55112e-17
540 1 35.0486 181.64 -5.55112e-17
541 1 105.348 128.116 -5.55112e-17
542 1 58.3938 126.19 -5.55112e-17
543 2 120.143 169.149 -5.55112e-17
544 1 217.387 211.149 -5.55112e-17
545 1 174.494 72.061 -5.55112e-17
546 2 186.735 9.93539 -5.55112e-17
547 1 13.0335 71.9311 -5.55112e-17
548 1 29.276 6.09574 -5.55112e-17
549 2 34.9948 152.653 -5.55112e-17
550 2 166.543 191.94 -5.55112e-17
551 2 36.0698 7.94084 -5.55112e-17
552 1 27.4479 53.9806 -5.55112e-17
553 2 208.49 195.535 -5.55112e-17
554 2 144.368 33.9489 -5.55112e-17
555 2 177.003 134.194 -5.55112e-17
556 1 177.305 212.081 -5.55112e-17
557 1 211.668 54.2986 -5.55112e-17
558 1 60.4792 142.628 -5.55112e-17
559 2 105.107 90.5513 -5.55112e-17
560 2 57.74 89.53 -5.55112e-17
561 2 110.731 182.332 -5.55112e-17
562 2 98.0628 65.2048 -5.55112e-17
563 1 73.5988 168.149 -5.55112e-17
564 2 109.113 76.3122 -5.55112e-17
565 2 27.6605 61.1816 -5.55112e-17
566 2 64.7297 60.8985 -5.55112e-17
567 1 94.3856 11.1488 -5.55112e-17
568 1 22.4715 77.8766 -5.55112e-17
569 2 142.235 194.248 -5.55112e-17
570 2 11.7843 20.954 -5.55112e-17
571 2 5.52089 62.1395 -5.55112e-17
572 1 114.781 107.747 -5.55112e-17
573 2 38.3349 89.5742 -5.55112e-17
574 2 179.295 173.722 -5.55112e-17
575 1 195.936 206.695 -5.55112e-17
576 1 24.191 71.4659 -5.55112e-17
577 1 127.447 74.4089 -5.55112e-17
578 1 183.505 114.897 -5.55112e-17
579 2 182.544 46.2803 -5.55112e-17
580 1 108.952 104.56 -5.55112e-17
581 1 91.3955 146.339 -5.55112e-17
582 2 125.387 100.97 -5.55112e-17
583 2 103.106 82.9565 -5.55112e-17
584 2 106.993 152.07 -5.55112e-17
585 1 181.907 102.758 -5.55112e-17
586 1 142.86 80.4172 -5.55112e-17
587 1 158.274 112.105 -5.55112e-17
588 2 64.5653 108.824 -5.55112e-17
589 1 211.385 59.5694 -5.55112e-17
590 2 184.239 58.4345 -5.55112e-17
591 2 178.933 16.4334 -5.55112e-17
592 1 203.905 129.073 -5.55112e-17
593 1 126.699 90.3935 -5.55112e-17
594 1 5.31648 70.1624 -5.55112e-17
595 1 30.1136 63.1109 -5.55112e-17
596 2 104.239 70.2005 -5.55112e-17
597 2 63.7695 105.792 -5.55112e-17
598 2 135.716 87.6664 -5.55112e-17
599 2 97.2518 165.521 -5.55112e-17
600 2 49.6313 98.5604 -5.55112e-17
601 1 145.894 107.794 -5.55112e-17
602 1 173.977 52.1315 -5.55112e-17
603 2 216.595 159.632 -5.55112e-17
604 1 46.729 178.938 -5.55112e-17
605 2 139.601 100.503 -5.55112e-17
606 2 150.048 99.489 -5.55112e-17
607 2 47.8124 169.153 -5.55112e-17
608 2 127.994 30.9366 -5.55112e-17
609 1 78.2671 89.7368 -5.55112e-17
610 2 108.703 199.831 -5.55112e-17
611 1 1.39969 165.469 -5.55112e-17
612 1 207.055 117.763 -5.55112e-17
613 2 213.271 156.969 -5.55112e-17
614 1 202.958 30.5794 -5.55112e-17
615 1 152.397 104.303 -5.55112e-17
616 2 146.114 177.878 -5.55112e-17
617 1 168.839 1.20243 -5.55112e-17
618 1 137.658 216.984 -5.55112e-17
619 1 161.972 160.007 -5.55112e-17
620 2 43.1653 88.9231 -5.55112e-17
621 2 203.809 76.7673 -5.55112e-17
622 2 146.43 151.917 -5.55112e-17
623 2 108.719 147.869 -5.55112e-17
624 1 110.332 177.318 -5.55112e-17
625 2 208.755 79.5943 -5.55112e-17
626 1 210.411 192.775 -5.55112e-17
627 2 195.925 192.574 -5.55112e-17
628 1 116.441 156.978 -5.55112e-17
629 1 30.4486 36.5066 -5.55112e-17
630 2 132.731 215.01 -5.55112e-17
631 2 144.495 115.252 -5.55112e-17
632 2 209.174 19.6391 -5.55112e-17
633 2 60.2979 131.895 -5.55112e-17
634 2 192.43 67.3057 -5.55112e-17
635 2 80.8611 72.5679 -5.55112e-17
636 1 88.4609 131.241 -5.55112e-17
637 1 216.913 152.778 -5.55112e-17
638 1 119.873 68.2128 -5.55112e-17
639 2 201.125 64.5422 -5.55112e-17
640 2 149.061 78.1565 -5.55112e-17
641 1 200.074 96.6851 -5.55112e-17
642 2 162.205 35.4066 -5.55112e-17
643 1 165.509 57.478 -5.55112e-17
644 2 140.53 157.401 -5.55112e-17
645 2 6.00357 75.468 -5.55112e-17
646 1 170.791 141.61 -5.55112e-17
647 2 128.732 148.293 -5.55112e-17
648 2 190.448 211.557 -5.55112e-17
649 1 63.6262 145.478 -5.55112e-17
650 1 56.0207 153.202 -5.55112e-17
651 1 112.506 130.93 -5.55112e-17
652 2 8.55867 213.656 -5.55112e-17
653 2 195.787 44.756 -5.55112e-17
654 1 209.064 165.174 -5.55112e-17
655 1 60.1748 49.2476 -5.55112e-17
656 1 199.049 10.2866 -5.55112e-17
657 1 124.748 120.429 -5.55112e-17
658 2 165.665 105.926 -5.55112e-17
659 2 101.65 137.779 -5.55112e-17
660 1 25.0834 12.5031 -5.55112e-17
661 2 16.0084 36.2127 -5.55112e-17
662 2 135.81 117.004 -5.55112e-17
663 1 163.455 113.005 -5.55112e-17
664 1 80.5431 138.543 -5.55112e-17
665 1 135.238 144.034 -5.55112e-17
666 1 203.402 182.458 -5.55112e-17
667 1 0.48442 117.144 -5.55112e-17
668 1 133.889 157.017 -5.55112e-17
669 1 106.702 161.429 -5.55112e-17
670 2 212.342 161.271 -5.55112e-17
671 1 3.40062 15.9014 -5.55112e-17
672 1 193.467 141.306 -5.55112e-17
673 2 48.0595 85.0129 -5.55112e-17
674 2 182.234 205.739 -5.55112e-17
675 2 149.423 2.00906 -5.55112e-17
676 1 181.043 160.454 -5.55112e-17
677 2 52.4332 55.0833 -5.55112e-17
678 1 86.8418 113.82 -5.55112e-17
679 1 85.8924 62.695 -5.55112e-17
680 2 70.1242 15.9417 -5.55112e-17
681 1 5.14902 8.9246 -5.55112e-17
682 1 141.408 171.832 -5.55112e-17
683 2 96.673 123.74 -5.55112e-17
684 1 23.2663 180.309 -5.55112e-17
685 1 83.4285 206.681 -5.55112e-17
686 1 147.513 154.504 -5.55112e-17
687 1 105.717 55.9572 -5.55112e-17
688 1 151.78 97.3305 -5.55112e-17
689 2 13.1507 142.589 -5.55112e-17
690 1 48.1822 120.945 -5.55112e-17
691 2 64.8105 115.106 -5.55112e-17
692 2 184.324 179.591 -5.55112e-17
693 1 161.441 96.1998 -5.55112e-17
694 2 141.322 151.633 -5.55112e-17
695 2 188.916 36.2106 -5.55112e-17
696 2 25.8903 81.4488 -5.55112e-17
697 1 104.893 35.5588 -5.55112e-17
698 2 40.4742 21.0988 -5.55112e-17
699 1 56.4051 204.024 -5.55112e-17
700 2 18.1279 126.074 -5.55112e-17
701 2 28.0149 64.5644 -5.55112e-17
702 1 161.169 9.61278 -5.55112e-17
703 1 194.984 63.7289 -5.55112e-17
704 1 159.683 122.966 -5.55112e-17
705 1 43.1395 120.56 -5.55112e-17
706 1 75.3138 161.522 -5.55112e-17
707 1 181.574 65.9053 -5.55112e-17
708 2 195.081 101.645 -5.55112e-17
709 1 54.0089 160.339 -5.55112e-17
710 2 92.0565 16.7923 -5.55112e-17
711 2 1.99059 141.528 -5.55112e-17
712 1 83.4736 214.53 -5.55112e-17
713 1 4.77668 152.6 -5.55112e-17
714 2 145.391 147.172 -5.55112e-17
715 2 132.735 87.0339 -5.55112e-17
716 1 87.9933 61.6652 -5.55112e-17
717 1 15.1209 60.971 -5.55112e-17
718 2 79.1335 100.204 -5.55112e-17
719 1 67.8453 202.401 -5.55112e-17
720 2 52.8742 200.97 -5.55112e-17
721 2 42.3117 211.429 -5.55112e-17
722 2 65.0223 136.373 -5.55112e-17
723 2 15.6019 165.419 -5.55112e-17
724 2 202.143 107.296 -5.55112e-17
725 2 23.4993 51.1082 -5.55112e-17
726 2 177.31 123.284 -5.55112e-17
727 2 35.5208 109.776 -5.55112e-17
728 1 176.553 77.2288 -5.55112e-17
729 2 160.622 136.113 -5.55112e-17
730 2 175.055 93.8926 -5.55112e-17
731 1 10.0235 22.8152 -5.55112e-17
732 2 98.518 89.2671 -5.55112e-17
733 2 149.615 140.944 -5.55112e-17
734 2 56.5419 191.768 -5.55112e-17
735 2 148.913 72.1638 -5.55112e-17
736 1 182.989 172.678 -5.55112e-17
737 2 45.952 39.4216 -5.55112e-17
738 2 70.7813 207.785 -5.55112e-17
739 2 185.97 130.982 -5.55112e-17
740 2 40.4887 115.651 -5.55112e-17
741 2 200.603 113.52 -5.55112e-17
742 1 72.1681 99.1578 -5.55112e-17
743 2 79.4387 75.9856 -5.55112e-17
744 1 147.352 49.6342 -5.55112e-17
745 2 15.7821 75.9862 -5.55112e-17
746 1 218.405 121.796 -5.55112e-17
747 1 99.0257 163.211 -5.55112e-17
748 2 70.6508 197.596 -5.55112e-17
749 1 213.834 166.813 -5.55112e-17
750 1 139.299 147.407 -5.55112e-17
751 1 142.749 89.2283 -5.55112e-17
752 2 196.642 167.988 -5.55112e-17
753 1 36.982 179.775 -5.55112e-17
754 2 66.3303 81.3831 -5.55112e-17
755 1 8.82099 79.1234 -5.55112e-17
756 2 178.769 57.8085 -5.55112e-17
757 1 112.999 16.5147 -5.55112e-17
758 2 100.362 26.3353 -5.55112e-17
759 1 96.0697 133.732 -5.55112e-17
760 1 171.251 61.5859 -5.55112e-17
761 2 213.234 101.541 -5.55112e-17
762 1 178.156 105.714 -5.55112e-17
763 2 6.20059 157.464 -5.55112e-17
764 2 45.8124 188.339 -5.55112e-17
765 1 22.0203 160.345 -5.55112e-17
766 2 100.773 47.7314 -5.55112e-17
767 2 206.359 149.194 -5.55112e-17
768 2 72.3996 62.1306 -5.55112e-17
769 2 187.887 97.8805 -5.55112e-17
770 1 134.149 18.1102 -5.55112e-17
771 1 65.3633 63.876 -5.55112e-17
772 1 131.339 2.9692 -5.55112e-17
773 2 166.701 172.03 -5.55112e-17
774 1 87.6629 85.8324 -5.55112e-17
775 1 103.706 78.2875 -5.55112e-17
776 2 192.65 103.35 -5.55112e-17
777 2 42.6211 79.1018 -5.55112e-17
778 1 83.2299 13.1817 -5.55112e-17
779 1 48.1468 62.6499 -5.55112e-17
780 2 84.318 49.9875 -5.55112e-17
781 1 25.6069 171.515 -5.55112e-17
782 2 122.857 170.266 -5.55112e-17
783 1 74.6371 60.8199 -5.55112e-17
784 2 97.2942 114.576 -5.55112e-17
785 1 206.501 83.6718 -5.55112e-17
786 1 47.0367 3.43825 -5.55112e-17
787 2 37.8089 205.652 -5.55112e-17
788 2 166.32 180.691 -5.55112e-17
789 2 18.5522 146.557 -5.55112e-17
790 2 77.2635 8.78887 -5.55112e-17
791 2 186.876 53.3093 -5.55112e-17
792 1 212.75 132.623 -5.55112e-17
793 1 97.4978 171.187 -5.55112e-17
794 2 209.65 6.3822 -5.55112e-17
795 2 10.6283 190.401 -5.55112e-17
796 1 68.8611 215.161 -5.55112e-17
797 1 47.2747 31.3168 -5.55112e-17
798 1 213.861 55.9061 -5.55112e-17
799 2 105.587 156.297 -5.55112e-17
800 1 52.9339 43.3467 -5.55112e-17
801 2 68.6404 85.0146 -5.55112e-17
802 1 90.3709 216.842 -5.55112e-17
803 1 143.006 24.3532 -5.55112e-17
804 1 210.059 125.212 -5.55112e-17
805 2 183.213 117.582 -5.55112e-17
806 2 181.139 157.818 -5.55112e-17
807 2 208.549 29.3369 -5.55112e-17
808 2 76.1789 144.456 -5.55112e-17
809 1 183.526 60.9317 -5.55112e-17
810 2 23.8999 173.535 -5.55112e-17
811 2 180.533 55.4903 -5.55112e-17
812 1 121.998 185.16 -5.55112e-17
813 1 23.0512 89.9672 -5.55112e-17
814 1 2.72417 204.289 -5.55112e-17
815 1 145.887 31.7206 -5.55112e-17
816 1 207.136 51.0061 -5.55112e-17
817 2 63.6059 71.4623 -5.55112e-17
818 2 29.502 122.553 -5.55112e-17
819 2 210.846 67.8384 -5.55112e-17
820 1 10.1449 58.9788 -5.55112e-17
821 1 65.0412 58.0554 -5.55112e-17
822 2 131.541 34.4014 -5.55112e-17
823 1 183.856 89.8308 -5.55112e-17
824 1 175.66 89.4589 -5.55112e-17
825 1 159.953 189.968 -5.55112e-17
826 2 178.114 81.5971 -5.55112e-17
827 2 103.105 27.4567 -5.55112e-17
828 1 50.3539 91.4677 -5.55112e-17
829 2 127.405 92.759 -5.55112e-17
830 1 3.75299 156.594 -5.55112e-17
831 2 183.202 218.097 -5.55112e-17
832 2 24.7853 53.4866 -5.55112e-17
833 2 96.7743 41.6176 -5.55112e-17
834 1 70.9266 164.365 -5.55112e-17
835 1 185.004 141.326 -5.55112e-17
836 1 153.087 69.4498 -5.55112e-17
837 2 167.6 92.0007 -5.55112e-17
838 2 91.9569 27.0404 -5.55112e-17
839 1 39.7419 31.6424 -5.55112e-17
840 2 13.8476 116.87 -5.55112e-17
841 2 201.696 10.6287 -5.55112e-17
842 1 169.754 160.633 -5.55112e-17
843 1 205.421 29.8832 -5.55112e-17
844 2 8.75554 25.0019 -5.55112e-17
845 1 46.9962 151.076 -5.55112e-17
846 2 127.816 211.673 -5.55112e-17
847 1 88.4854 143.057 -5.55112e-17
848 2 113.499 6.82305 -5.55112e-17
849 1 24.8527 32.1848 -5.55112e-17
850 2 60.8461 67.6275 -5.55112e-17
851 2 216.236 30.6243 -5.55112e-17
852 1 137.397 183.002 -5.55112e-17
853 1 185.619 104.991 -5.55112e-17
854 2 103.578 145.787 -5.55112e-17
855 2 165.588 120.884 -5.55112e-17
856 1 77.352 160.054 -5.55112e-17