ITEM: TIMESTEP
0
ITEM: NUMBER OF ATOMS
7200
ITEM: BOX BOUNDS xy xz yz pp pp pp
0.0000000000000000e+00 2.1900000000000000e+02 0.0000000000000000e+00
0.0000000000000000e+00 2.1900000000000000e+02 0.0000000000000000e+00
-3.6499999999999999e-01 3.6499999999999999e-01 0.0000000000000000e+00
ITEM: ATOMS id type x y z
1 1 182.867 12.8906 -5.55112e-17
2 2 191.239 184.714 -5.55112e-17
3 2 144.568 189.204 -5.55112e-17
4 1 122.536 109.714 -5.55112e-17
5 1 101.56 127.533 -5.55112e-17
6 1 103.261 25.6323 -5.55112e-17
7 2 160.431 127.42 -5.55112e-17
8 2 70.2346 25.8305 -5.55112e-17
9 1 21.9824 215.488 -5.55112e-17
10 2 52.1246 167.243 -5.55112e-17
11 2 213.33 101.269 -5.55112e-17
12 1 32.9827 197.706 -5.55112e-17
13 2 192.001 54.8013 -5.55112e-17
14 1 56.6443 183.028 -5.55112e-17
15 2 193.592 0.910827 -5.55112e-17
16 2 215.667 87.2448 -5.55112e-17
17 1 69.0115 74.4736 -5.55112e-17
18 2 10.4141 172.653 -5.55112e-17
19 1 91.9662 129.879 -5.55112e-17
20 1 70.8999 14.398 -5.55112e-17
21 1 159.547 12.8985 -5.55112e-17
22 2 26.5562 210.31 -5.55112e-17
23 2 42.1814 209.594 -5.55112e-17
24 2 216.213 101.708 -5.55112e-17
25 2 22.6338 201.319 -5.55112e-17
26 2 149 27.8584 -5.55112e-17
27 1 217.339 161.722 -5.55112e-17
28 2 54.0511 154.959 -5.55112e-17
29 2 82.3184 5.39946 -5.55112e-17
30 2 132.272 43.6632 -5.55112e-17
31 2 156.944 84.1584 -5.55112e-17
32 1 48.4349 109.793 -5.55112e-17
33 2 145.713 88.1714 -5.55112e-17
34 2 12.0803 95.3409 -5.55112e-17
35 2 127.41 10.8851 -5.55112e-17
36 1 161.48 147.87 -5.55112e-17
37 1 133.084 185.168 -5.55112e-17
38 2 208.683 157.669 -5.55112e-17
39 1 8.18523 38.4779 -5.55112e-17
40 2 195.235 71.9644 -5.55112e-17
41 1 192.298 71.5575 -5.55112e-17
42 1 55.2205 59.9474 -5.55112e-17
43 1 210.246 131.941 -5.55112e-17
44 1 155.268 187.584 -5.55112e-17
45 2 159.619 61.7674 -5.55112e-17
46 1 124.536 192.67 -5.55112e-17
47 2 87.0847 73.7207 -5.55112e-17
48 2 152.092 124.676 -5.55112e-17
49 1 194.737 200.636 -5.55112e-17
50 2 26.5837 49.492 -5.55112e-17
51 1 186.475 3.78689 -5.55112e-17
52 1 114.161 42.7878 -5.55112e-17
53 2 55.1025 194.462 -5.55112e-17
54 1 39.5974 6.7739 -5.55112e-17
55 2 53.0573 141.701 -5.55112e-17
56 1 30.9681 132.544 -5.55112e-17
57 2 57.6177 133.867 -5.55112e-17
58 1 186.376 39.7969 -5.55112e-17
59 1 158.066 86.7384 -5.55112e-17
60 2 206.242 60.2103 -5.55112e-17
61 1 157.336 167.081 -5.55112e-17
62 1 108.762 113.527 -5.55112e-17
63 2 108.697 37.5809 -5.55112e-17
64 1 31.1399 19.9868 -5.55112e-17
65 2 156.589 150.103 -5.55112e-17
66 2 12.5798 154.82 -5.55112e-17
67 2 180.463 106.221 -5.55112e-17
68 1 137.477 83.2642 -5.55112e-17
69 2 108.615 168.234 -5.55112e-17
70 1 141.457 97.9867 -5.55112e-17
71 1 197.105 145.414 -5.55112e-17
72 2 44.731 157.54 -5.55112e-17
73 2 193.739 186.705 -5.55112e-17
74 2 115.898 60.4378 -5.55112e-17
75 1 14.2984 136.507 -5.55112e-17
76 2 137.776 206.185 -5.55112e-17
77 2 168.818 16.1417 -5.55112e-17
78 1 91.6264 211.851 -5.55112e-17
79 2 62.0694 76.3386 -5.55112e-17
80 1 52.6163 32.868 -5.55112e-17
81 1 181.986 212.091 -5.55112e-17
82 1 175.644 45.7356 -5.55112e-17
83 1 72.7084 91.2557 -5.55112e-17
84 2 140.483 179.471 -5.55112e-17
85 2 150.128 142.99 -5.55112e-17
86 2 51.939 69.3322 -5.55112e-17
87 2 33.1638 80.1709 -5.55112e-17
88 1 79.4665 160.866 -5.55112e-17
89 2 200.196 107.407 -5.55112e-17
90 2 126.683 34.9246 -5.55112e-17
91 2 10.681 182.478 -5.55112e-17
92 1 27.2742 215.281 -5.55112e-17
93 2 110.007 154.367 -5.55112e-17
94 2 113.072 143.869 -5.55112e-17
95 1 211.695 52.3099 -5.55112e-17
96 2 31.9833 57.5444 -5.55112e-17
97 2 4.30188 212.131 -5.55112e-17
98 2 35.5275 184.686 -5.55112e-17
99 1 109.308 9.16276 -5.55112e-17
100 2 159.06 66.241 -5.55112e-17
101 1 176.389 108.374 -5.55112e-17
102 1 66.0076 164.396 -5.55112e-17
103 2 204.804 100.149 -5.55112e-17
104 2 101.821 73.217 -5.55112e-17
105 1 161.152 59.4532 -5.55112e-17
106 1 189.99 53.3929 -5.55112e-17
107 1 2.02894 104.214 -5.55112e-17
108 1 69.7987 210.564 -5.55112e-17
109 2 218.115 39.9172 -5.55112e-17
110 2 144.815 29.7089 -5.55112e-17
111 1 54.8665 93.2657 -5.55112e-17
112 2 9.0141 51.4294 -5.55112e-17
113 1 135.237 10.5554 -5.55112e-17
114 1 93.2379 81.7437 -5.55112e-17
115 2 32.7363 65.5174 -5.55112e-17
116 2 183.831 15.5371 -5.55112e-17
117 1 154.466 115.439 -5.55112e-17
118 1 84.6989 92.9525 -5.55112e-17
119 2 99.0494 138.89 -5.55112e-17
120 2 201.363 59.0447 -5.55112e-17
121 1 204.302 138.557 -5.55112e-17
122 2 143.29 129.987 -5.55112e-17
123 2 4.66996 132.324 -5.55112e-17
124 1 160.748 200.95 -5.55112e-17
125 1 87.7231 194.057 -5.55112e-17
126 2 95.8685 82.5402 -5.55112e-17
127 2 208.605 110.601 -5.55112e-17
128 1 121.313 104.704 -5.55112e-17
129 1 144.416 194.372 -5.55112e-17
130 2 125.145 54.0331 -5.55112e-17
131 1 121.696 45.7861 -5.55112e-17
132 1 139.6 21.7125 -5.55112e-17
133 1 179.257 103.924 -5.55112e-17
134 1 81.8276 194.642 -5.55112e-17
135 2 176.652 65.2708 -5.55112e-17
136 1 191.718 121.014 -5.55112e-17
137 1 57.8441 15.2197 -5.55112e-17
138 2 153.498 160.005 -5.55112e-17
139 1 132.967 11.7714 -5.55112e-17
140 1 144.605 207.969 -5.55112e-17
141 1 52.1838 72.0505 -5.55112e-17
142 1 216.256 195.935 -5.55112e-17
143 1 26.5383 26.5148 -5.55112e-17
144 1 47.6581 97.5905 -5.55112e-17
145 2 193.155 78.9919 -5.55112e-17
146 1 159.197 133.163 -5.55112e-17
147 2 15.9571 134.243 -5.55112e-17
148 1 24.0959 132.936 -5.55112e-17
149 1 147.39 189.867 -5.55112e-17
150 2 65.4339 52.0972 -5.55112e-17
151 1 132.449 138.199 -5.55112e-17
152 1 155.974 159.299 -5.55112e-17
153 2 123.792 130.141 -5.55112e-17
154 1 186.291 56.4184 -5.55112e-17
155 2 204.182 40.4393 -5.55112e-17
156 2 106.451 190.2 -5.55112e-17
157 2 168.14 26.9942 -5.55112e-17
158 2 27.8998 8.3493 -5.55112e-17
159 2 11.4429 158.602 -5.55112e-17
160 2 115.282 49.322 -5.55112e-17
161 2 129.861 138.909 -5.55112e-17
162 1 18.0446 66.4183 -5.55112e-17
163 1 184.083 32.8064 -5.55112e-17
164 2 109.59 131.086 -5.55112e-17
165 1 50.4018 73.7061 -5.55112e-17
166 2 8.46053 204.906 -5.55112e-17
167 1 106.014 167.873 -5.55112e-17
168 1 211.315 102.924 -5.55112e-17
169 2 102.813 206.202 -5.55112e-17
170 1 66.1027 207.232 -5.55112e-17
171 1 137.434 92.5218 -5.55112e-17
172 1 199.886 200.365 -5.55112e-17
173 1 35.6951 201.046 -5.55112e-17
174 2 37.6307 173.134 -5.55112e-17
175 2 49.5635 204.707 -5.55112e-17
176 1 119.842 151.271 -5.55112e-17
177 2 108.47 11.7845 -5.55112e-17
178 1 25.3462 8.03627 -5.55112e-17
179 2 112.127 195.095 -5.55112e-17
180 1 48.3345 75.0534 -5.55112e-17
181 1 16.2901 118.984 -5.55112e-17
182 1 110.326 89.1989 -5.55112e-17
183 1 63.7277 168.784 -5.55112e-17
184 2 157.392 25.8953 -5.55112e-17
185 2 190.082 78.283 -5.55112e-17
186 2 73.7207 206.89 -5.55112e-17
187 2 162.999 202.369 -5.55112e-17
188 2 60.3775 34.5856 -5.55112e-17
189 1 179.61 59.2144 -5.55112e-17
190 1 193.789 52.8588 -5.55112e-17
191 2 36.4434 104.367 -5.55112e-17
192 2 91.7923 60.9773 -5.55112e-17
193 1 107.823 165.531 -5.55112e-17
194 1 26.8349 5.77612 -5.55112e-17
195 2 58.5289 119.926 -5.55112e-17
196 1 0.5708 0.540369 -5.55112e-17
197 2 119.109 45.7811 -5.55112e-17
198 2 205.981 27.7211 -5.55112e-17
199 2 97.3442 173.144 -5.55112e-17
200 2 99.2865 30.1277 -5.55112e-17
201 2 103.613 126.117 -5.55112e-17
202 1 47.9034 32.2858 -5.55112e-17
203 1 19.6004 46.3354 -5.55112e-17
204 2 45.992 77.5222 -5.55112e-17
205 2 179.861 179.626 -5.55112e-17
206 2 170.927 129.958 -5.55112e-17
207 1 67.8668 187.27 -5.55112e-17
208 2 130.669 60.3789 -5.55112e-17
209 2 32.336 142.425 -5.55112e-17
210 1 181.712 108.417 -5.55112e-17
211 1 209.631 36.3074 -5.55112e-17
212 1 208.201 84.9393 -5.55112e-17
213 1 128.255 123.514 -5.55112e-17
214 2 12.5618 12.0838 -5.55112e-17
215 1 3.43762 139.732 -5.55112e-17
216 1 49.4024 48.1797 -5.55112e-17
217 1 164.703 62.0078 -5.55112e-17
218 2 201.63 120.66 -5.55112e-17
219 2 136.218 189.189 -5.55112e-17
220 1 119.428 0.485268 -5.55112e-17
221 2 82.3997 8.81745 -5.55112e-17
222 1 152.107 155.577 -5.55112e-17
223 1 44.9057 119.485 -5.55112e-17
224 2 145.906 70.9593 -5.55112e-17
225 2 171.914 169.392 -5.55112e-17
226 1 196.068 10.9577 -5.55112e-17
227 2 203.03 215.416 -5.55112e-17
228 2 116.026 44.3198 -5.55112e-17
229 1 41.502 17.8369 -5.55112e-17
230 1 5.04679 57.2915 -5.55112e-17
231 2 136.675 160.392 -5.55112e-17
232 1 14.5715 205.513 -5.55112e-17
233 2 76.7391 195.881 -5.55112e-17
234 1 0.744313 59.9876 -5.55112e-17
235 1 150.037 106.82 -5.55112e-17
236 2 153.481 52.9169 -5.55112e-17
237 2 99.3254 202.151 -5.55112e-17
238 2 94.8266 140.003 -5.55112e-17
239 1 34.1581 212.701 -5.55112e-17
240 1 130.041 90.7853 -5.55112e-17
241 2 3.50707 124.524 -5.55112e-17
242 1 195.877 29.9882 -5.55112e-17
243 2 214.858 129.79 -5.55112e-17
244 2 38.4324 190.842 -5.55112e-17
245 1 174.207 21.4009 -5.55112e-17
246 2 91.2488 83.3589 -5.55112e-17
247 2 196.865 148.363 -5.55112e-17
248 1 38.718 26.1665 -5.55112e-17
249 1 131.872 108.009 -5.55112e-17
250 1 134.418 27.4263 -5.55112e-17
251 2 102.62 43.8081 -5.55112e-17
252 1 110.535 156.808 -5.55112e-17
253 2 96.832 99.7742 -5.55112e-17
254 2 179 205.747 -5.55112e-17
255 2 124.046 47.9953 -5.55112e-17
256 1 2.71581 179.817 -5.55112e-17
257 2 30.6133 192.902 -5.55112e-17
258 1 211.017 81.5415 -5.55112e-17
259 2 162.04 142.815 -5.55112e-17
260 1 44.3349 192.909 -5.55112e-17
261 2 142.519 176.801 -5.55112e-17
262 2 185.212 104.84 -5.55112e-17
263 2 94.0469 172.145 -5.55112e-17
264 1 200.336 36.4634 -5.55112e-17
265 1 157.307 186.42 -5.55112e-17
266 1 91.5181 194.783 -5.55112e-17
267 2 109.576 16.0855 -5.55112e-17
268 1 0.164552 49.6033 -5.55112e-17
269 2 10.8713 113.482 -5.55112e-17
270 2 180.13 146.938 -5.55112e-17
271 2 187.876 94.558 -5.55112e-17
272 1 57.9765 26.6513 -5.55112e-17
273 1 72.1531 83.146 -5.55112e-17
274 1 35.8828 189.858 -5.55112e-17
275 1 146.438 110.888 -5.55112e-17
276 1 198.998 74.5853 -5.55112e-17
277 1 98.4423 36.138 -5.55112e-17
278 2 60.9557 145.523 -5.55112e-17
279 2 160.408 86.9888 -5.55112e-17
280 1 117.596 212.067 -5.55112e-17
281 2 164.334 177.557 -5.55112e-17
282 2 73.3838 127.708 -5.55112e-17
283 2 218.462 150.574 -5.55112e-17
284 1 125.61 113.335 -5.55112e-17
285 1 72.6967 165.412 -5.55112e-17
286 2 29.633 180.182 -5.55112e-17
287 2 98.3643 104.027 -5.55112e-17
288 1 109.163 128.19 -5.55112e-17
289 2 189 56.0445 -5.55112e-17
290 1 99.7389 22.3415 -5.55112e-17
291 2 97.0935 189.301 -5.55112e-17
292 1 75.1268 125.792 -5.55112e-17
293 1 160.008 163.51 -5.55112e-17
294 1 29.3345 177.389 -5.55112e-17
295 2 46.4023 145.777 -5.55112e-17
296 1 189.736 172.6 -5.55112e-17
297 1 2.70672 18.8393 -5.55112e-17
298 2 30.1927 140.723 -5.55112e-17
299 1 177.308 51.8942 -5.55112e-17
300 2 187.161 194.939 -5.55112e-17
301 2 172.117 19.7858 -5.55112e-17
302 2 164.136 89.6317 -5.55112e-17
303 1 1.97664 151.014 -5.55112e-17
304 1 124.198 105.565 -5.55112e-17
305 1 91.9857 177.619 -5.55112e-17
306 2 83.5924 18.0299 -5.55112e-17
307 2 149.752 167.183 -5.55112e-17
308 2 142.152 22.5164 -5.55112e-17
309 1 72.3248 71.8037 -5.55112e-17
310 1 189.897 182.31 -5.55112e-17
311 1 150.865 109.682 -5.55112e-17
312 2 135.11 13.253 -5.55112e-17
313 2 155.083 18.49 -5.55112e-17
314 1 191.29 57.2459 -5.55112e-17
315 2 58.3081 104.874 -5.55112e-17
316 1 93.8141 36.3888 -5.55112e-17
317 1 132.812 175.854 -5.55112e-17
318 1 216.074 135.234 -5.55112e-17
319 2 72.5358 202.489 -5.55112e-17
320 1 214.129 48.8056 -5.55112e-17
321 1 54.38 87.9561 -5.55112e-17
322 1 51.4429 148.405 -5.55112e-17
323 2 19.7337 138.251 -5.55112e-17
324 2 11.3716 98.2929 -5.55112e-17
325 2 216.32 13.9989 -5.55112e-17
326 1 185.044 1.74552 -5.55112e-17
327 1 34.3586 47.399 -5.55112e-17
328 2 29.0587 190.257 -5.55112e-17
329 2 25.7116 81.3283 -5.55112e-17
330 2 152.653 38.8814 -5.55112e-17
331 2 187.323 66.4845 -5.55112e-17
332 2 121.111 114.174 -5.55112e-17
333 2 27.7082 150.796 -5.55112e-17
334 2 216.195 18.4854 -5.55112e-17
335 1 166.818 211.38 -5.55112e-17
336 2 27.3349 141.916 -5.55112e-17
337 2 42.1058 7.58673 -5.55112e-17
338 1 207.496 95.9251 -5.55112e-17
339 2 14.4901 152.202 -5.55112e-17
340 2 176.995 215.079 -5.55112e-17
341 2 105.053 66.2311 -5.55112e-17
342 2 179.257 174.133 -5.55112e-17
343 2 176.037 4.6892 -5.55112e-17
344 1 87.7322 111.712 -5.55112e-17
345 2 29.3114 211.735 -5.55112e-17
346 2 76.3774 72.063 -5.55112e-17
347 1 148.047 98.756 -5.55112e-17
348 1 181.098 4.2846 -5.55112e-17
349 2 173.09 70.068 -5.55112e-17
350 2 77.8872 178.811 -5.55112e-17
351 1 171.321 139.06 -5.55112e-17
352 1 212.819 163.289 -5.55112e-17
353 2 141.007 131.999 -5.55112e-17
354 2 192.812 177.208 -5.55112e-17
355 1 215.717 156.809 -5.55112e-17
356 2 113.343 218.09 -5.55112e-17
357 1 127.044 192.473 -5.55112e-17
358 1 77.2115 25.1604 -5.55112e-17
359 1 34.4436 143.698 -5.55112e-17
360 1 60.2356 14.1544 -5.55112e-17
361 2 198.428 67.2018 -5.55112e-17
362 2 172.33 94.2766 -5.55112e-17
363 1 78.5095 215.698 -5.55112e-17
364 2 217.933 47.4479 -5.55112e-17
365 1 5.83064 163.988 -5.55112e-17
366 1 82.5629 172.52 -5.55112e-17
367 1 165.669 105.645 -5.55112e-17
368 1 20.4204 164.391 -5.55112e-17
369 2 81.2561 143.807 -5.55112e-17
370 1 6.90097 133.799 -5.55112e-17
371 2 72.6356 110.963 -5.55112e-17
372 1 86.7494 7.1114 -5.55112e-17
373 2 116.583 207.129 -5.55112e-17
374 2 176.784 102.699 -5.55112e-17
375 1 136.191 25.5496 -5.55112e-17
376 1 121.529 146.534 -5.55112e-17
377 2 96.1413 71.7919 -5.55112e-17
378 2 215.782 106.693 -5.55112e-17
379 2 172.576 182.989 -5.55112e-17
380 1 198.84 34.4435 -5.55112e-17
381 1 172.146 67.6805 -5.55112e-17
382 1 122.655 26.3558 -5.55112e-17
383 1 111.873 80.2821 -5.55112e-17
384 2 55.9403 101.279 -5.55112e-17
385 1 68.2137 144.152 -5.55112e-17
386 2 179.008 166.08 -5.55112e-17
387 1 35.4849 106.882 -5.55112e-17
388 1 143.111 163.811 -5.55112e-17
389 2 216.336 121.065 -5.55112e-17
390 1 106.491 68.5878 -5.55112e-17
391 1 203.711 217.842 -5.55112e-17
392 2 1.6569 98.6564 -5.55112e-17
393 2 192.276 174.598 -5.55112e-17
394 1 32.9253 205.552 -5.55112e-17
395 1 19.3417 215.479 -5.55112e-17
396 2 77.3211 87.8716 -5.55112e-17
397 1 66.8892 36.952 -5.55112e-17
398 2 162.305 109.862 -5.55112e-17
399 2 196.808 106.857 -5.55112e-17
400 2 124 70.7573 -5.55112e-17
401 2 84.7624 193.621 -5.55112e-17
402 1 84.7196 42.2437 -5.55112e-17
403 1 69.2253 115.398 -5.55112e-17
404 2 115.144 10.7782 -5.55112e-17
405 1 56.1553 191.924 -5.55112e-17
406 2 1.32804 95.3181 -5.55112e-17
407 1 123.748 78.4201 -5.55112e-17
408 1 130.11 29.0318 -5.55112e-17
409 2 214.601 115.935 -5.55112e-17
410 2 70.3687 159.065 -5.55112e-17
411 1 136.214 96.7195 -5.55112e-17
412 1 165.55 4.35513 -5.55112e-17
413 1 30.4003 84.0378 -5.55112e-17
414 2 193.639 202.854 -5.55112e-17
415 1 108.856 125.542 -5.55112e-17
416 1 175.43 49.9728 -5.55112e-17
417 2 105.08 131.12 -5.55112e-17
418 2 34.3294 179.297 -5.55112e-17
419 2 195.546 91.7307 -5.55112e-17
420 2 112.216 48.2268 -5.55112e-17
421 1 72.0956 30.611 -5.55112e-17
422 1 31.6782 62.9833 -5.55112e-17
423 2 113.526 125.059 -5.55112e-17
424 2 39.2727 23.3985 -5.55112e-17
425 2 117.311 150.341 -5.55112e-17
426 1 185.798 96.5553 -5.55112e-17
427 2 73.9448 58.9188 -5.55112e-17
428 1 28.6141 175.027 -5.55112e-17
429 2 131.194 149.947 -5.55112e-17
430 2 108.265 107.483 -5.55112e-17
431 1 13.8115 9.88345 -5.55112e-17
432 2 173.401 3.54774 -5.55112e-17
433 1 179.041 194.222 -5.55112e-17
434 1 17.3088 200.447 -5.55112e-17
435 1 150.041 85.9126 -5.55112e-17
436 2 77.4256 200.604 -5.55112e-17
437 2 181.574 82.4208 -5.55112e-17
438 2 195.428 175.26 -5.55112e-17
439 2 92.2404 8.55262 -5.55112e-17
440 2 205.069 94.5471 -5.55112e-17
441 1 130.562 167.288 -5.55112e-17
442 1 39.4258 104.384 -5.55112e-17
443 2 80.4592 81.3091 -5.55112e-17
444 1 204.101 104.809 -5.55112e-17
445 1 169.793 137.23 -5.55112e-17
446 2 184.54 158.792 -5.55112e-17
447 2 38.4951 41.1111 -5.55112e-17
448 2 205.803 175.571 -5.55112e-17
449 1 40.8399 177.024 -5.55112e-17
450 1 10.7694 125.863 -5.55112e-17
451 1 50.2408 210.418 -5.55112e-17
452 2 209.249 61.2795 -5.55112e-17
453 1 216.025 149.772 -5.55112e-17
454 1 3.18307 69.6583 -5.55112e-17
455 2 80.655 131.248 -5.55112e-17
456 1 83.2751 3.07325 -5.55112e-17
457 2 141.309 145.424 -5.55112e-17
458 2 153.691 134.861 -5.55112e-17
459 2 133.016 51.696 -5.55112e-17
460 1 197.291 170.024 -5.55112e-17
461 1 110.942 124.257 -5.55112e-17
462 1 94.9118 182.504 -5.55112e-17
463 2 108.788 218.281 -5.55112e-17
464 2 14.048 80.204 -5.55112e-17
465 1 124.341 15.62 -5.55112e-17
466 2 152.382 127.689 -5.55112e-17
467 2 65.3879 134.289 -5.55112e-17
468 2 123.875 125.573 -5.55112e-17
469 2 59.4937 72.1169 -5.55112e-17
470 2 208.176 154.572 -5.55112e-17
471 2 212.228 212.243 -5.55112e-17
472 2 110.985 35.8341 -5.55112e-17
473 2 197.68 215.245 -5.55112e-17
474 2 84.8288 146.629 -5.55112e-17
475 1 164.28 182.377 -5.55112e-17
476 2 173.951 34.7925 -5.55112e-17
477 1 209.299 218.888 -5.55112e-17
478 1 46.8777 191.317 -5.55112e-17
479 2 1.57776 197.778 -5.55112e-17
480 1 83.9686 59.2331 -5.55112e-17
481 1 2.48378 209.836 -5.55112e-17
482 2 152.62 178.635 -5.55112e-17
483 1 134.293 208.789 -5.55112e-17
484 1 67.2952 135.911 -5.55112e-17
485 2 13.2661 174.02 -5.55112e-17
486 1 133.766 72.0777 -5.55112e-17
487 1 11.4554 201.238 -5.55112e-17
488 1 51.7366 84.2984 -5.55112e-17
489 1 71.8121 108.235 -5.55112e-17
490 1 164.999 73.7637 -5.55112e-17
491 1 163.569 75.9312 -5.55112e-17
492 2 209.203 15.9213 -5.55112e-17
493 1 92.3392 209.35 -5.55112e-17
494 2 77.8582 64.7012 -5.55112e-17
495 1 150.614 92.7453 -5.55112e-17
496 1 52.1043 123.833 -5.55112e-17
497 1 136.809 109.904 -5.55112e-17
498 2 144.553 39.1601 -5.55112e-17
499 2 184.977 124.274 -5.55112e-17
500 2 59.4918 40.0238 -5.55112e-17
501 2 14.2884 139.121 -5.55112e-17
502 2 193.256 126.517 -5.55112e-17
503 2 58.3506 64.3152 -5.55112e-17
504 2 98.8911 48.9623 -5.55112e-17
505 2 108.707 207.125 -5.55112e-17
506 1 207.2 6.81028 -5.55112e-17
507 2 49.7626 183.119 -5.55112e-17
508 1 140.031 57.7277 -5.55112e-17
509 1 209.983 47.9975 -5.55112e-17
510 1 192.907 103.291 -5.55112e-17
511 2 110.135 178.356 -5.55112e-17
512 1 14.84 44.8434 -5.55112e-17
513 2 86.9498 183.288 -5.55112e-17
514 2 15.5222 90.6178 -5.55112e-17
515 1 62.4065 99.1731 -5.55112e-17
516 2 99.0652 72.6182 -5.55112e-17
517 1 32.3575 147.433 -5.55112e-17
518 2 10.7281 14.4389 -5.55112e-17
519 1 125.133 91.5578 -5.55112e-17
520 2 210.575 89.434 -5.55112e-17
521 2 128.772 39.9315 -5.55112e-17
522 1 187.281 7.58394 -5.55112e-17
523 1 127.278 99.2118 -5.55112e-17
524 2 175.142 18.7732 -5.55112e-17
525 2 188.671 51.2094 -5.55112e-17
526 2 102.903 17.9349 -5.55112e-17
527 1 170.716 25.7692 -5.55112e-17
528 1 212.719 202.409 -5.55112e-17
529 2 107.335 177.078 -5.55112e-17
530 2 21.4324 90.3225 -5.55112e-17
531 2 184.545 177.086 -5.55112e-17
532 1 79.8747 5.94719 -5.55112e-17
533 2 23.2591 157.693 -5.55112e-17
534 1 22.2106 168.206 -5.55112e-17
535 1 169.55 206.924 -5.55112e-17
536 2 17.5125 169.469 -5.55112e-17
537 1 142.132 29.0469 -5.55112e-17
538 1 68.1739 157.535 -5.55112e-17
539 2 79.9722 163.31 -5.55112e-17
540 1 34.9427 181.769 -5.55112e-17
541 1 107.345 129.814 -5.55112e-17
542 1 58.1965 126.923 -5.55112e-17
543 2 119.841 168.687 -5.55112e-17
544 1 217.756 212.098 -5.55112e-17
545 1 174.456 72.3193 -5.55112e-17
546 2 186.983 10.2058 -5.55112e-17
547 1 20.3888 81.4965 -5.55112e-17
548 1 29.1882 6.25968 -5.55112e-17
549 2 34.8258 152.396 -5.55112e-17
550 2 167.32 191.975 -5.55112e-17
551 2 37.3241 5.89701 -5.55112e-17
552 1 28.4566 53.8082 -5.55112e-17
553 2 208.371 195.685 -5.55112e-17
554 2 143.771 34.0804 -5.55112e-17
555 2 173.918 139.899 -5.55112e-17
556 1 177.686 212.292 -5.55112e-17
557 1 211.211 54.8625 -5.55112e-17
558 1 59.9813 143.182 -5.55112e-17
559 2 107.786 94.1939 -5.55112e-17
560 2 58.9885 89.9419 -5.55112e-17
561 2 105.022 181.672 -5.55112e-17
562 2 99.588 63.9866 -5.55112e-17
563 1 72.7619 167.897 -5.55112e-17
564 2 109.983 75.7694 -5.55112e-17
565 2 27.6909 59.9607 -5.55112e-17
566 2 64.7728 60.6215 -5.55112e-17
567 1 91.9412 12.8188 -5.55112e-17
568 1 20.3145 67.4281 -5.55112e-17
569 2 141.906 194.14 -5.55112e-17
570 2 11.8983 21.8031 -5.55112e-17
571 2 5.48328 62.5271 -5.55112e-17
572 1 114.737 107.522 -5.55112e-17
573 2 40.0949 89.2662 -5.55112e-17
574 2 169.834 171.584 -5.55112e-17
575 1 196.191 207.398 -5.55112e-17
576 1 25.7147 78.6584 -5.55112e-17
577 1 128.127 75.219 -5.55112e-17
578 1 186.096 111.411 -5.55112e-17
579 2 183.526 48.7197 -5.55112e-17
580 1 104.102 104.077 -5.55112e-17
581 1 91.4715 146.25 -5.55112e-17
582 2 125.157 100.882 -5.55112e-17
583 2 106.223 79.5172 -5.55112e-17
584 2 107.206 151.13 -5.55112e-17
585 1 177.207 100.23 -5.55112e-17
586 1 143.577 80.3118 -5.55112e-17
587 1 159.946 110.336 -5.55112e-17
588 2 65.1413 110.014 -5.55112e-17
589 1 211.219 59.8255 -5.55112e-17
590 2 182.105 59.284 -5.55112e-17
591 2 178.886 16.4913 -5.55112e-17
592 1 204.002 128.396 -5.55112e-17
593 1 126.99 89.8545 -5.55112e-17
594 1 5.65971 70.8765 -5.55112e-17
595 1 29.9541 64.9951 -5.55112e-17
596 2 110.635 67.107 -5.55112e-17
597 2 64.7286 104.581 -5.55112e-17
598 2 136.053 87.4885 -5.55112e-17
599 2 96.4451 164.919 -5.55112e-17
600 2 50.9966 99.2496 -5.55112e-17
601 1 145.787 108.106 -5.55112e-17
602 1 175.576 55.3715 -5.55112e-17
603 2 216.653 159.274 -5.55112e-17
604 1 46.777 179.517 -5.55112e-17
605 2 140.118 100.336 -5.55112e-17
606 2 150.515 99.8961 -5.55112e-17
607 2 47.2723 169.591 -5.55112e-17
608 2 127.865 30.8398 -5.55112e-17
609 1 79.5704 88.5924 -5.55112e-17
610 2 101.466 191.98 -5.55112e-17
611 1 1.43014 165.322 -5.55112e-17
612 1 207.657 117.668 -5.55112e-17
613 2 213.166 156.375 -5.55112e-17
614 1 204.347 30.9617 -5.55112e-17
615 1 151.91 104.858 -5.55112e-17
616 2 145.564 177.817 -5.55112e-17
617 1 168.399 1.20742 -5.55112e-17
618 1 137.445 215.943 -5.55112e-17
619 1 156.313 155.233 -5.55112e-17
620 2 44.8482 89.1149 -5.55112e-17
621 2 203.321 76.8378 -5.55112e-17
622 2 146.331 151.747 -5.55112e-17
623 2 108.989 146.955 -5.55112e-17
624 1 113.773 172.923 -5.55112e-17
625 2 208.738 79.8162 -5.55112e-17
626 1 211.222 190.726 -5.55112e-17
627 2 196.214 193.704 -5.55112e-17
628 1 116.892 156.049 -5.55112e-17
629 1 31.1844 37.5943 -5.55112e-17
630 2 132.839 214.283 -5.55112e-17
631 2 144.464 115.382 -5.55112e-17
632 2 209.06 20.324 -5.55112e-17
633 2 60.2433 132.064 -5.55112e-17
634 2 190.21 66.8162 -5.55112e-17
635 2 81.1604 71.431 -5.55112e-17
636 1 87.5022 130.928 -5.55112e-17
637 1 216.821 152.303 -5.55112e-17
638 1 120.599 67.0459 -5.55112e-17
639 2 199.338 64.3497 -5.55112e-17
640 2 149.549 78.4845 -5.55112e-17
641 1 200.09 96.8728 -5.55112e-17
642 2 162.017 34.8202 -5.55112e-17
643 1 165.89 57.9905 -5.55112e-17
644 2 140.543 157.091 -5.55112e-17
645 2 5.77936 76.2392 -5.55112e-17
646 1 170.9 143.781 -5.55112e-17
647 2 128.737 147.784 -5.55112e-17
648 2 190.354 211.874 -5.55112e-17
649 1 63.5434 145.025 -5.55112e-17
650 1 56.266 153.506 -5.55112e-17
651 1 102.947 132.774 -5.55112e-17
652 2 8.48591 214.792 -5.55112e-17
653 2 195.96 42.9584 -5.55112e-17
654 1 208.563 164.126 -5.55112e-17
655 1 60.1815 49.3483 -5.55112e-17
656 1 198.957 11.2374 -5.55112e-17
657 1 125.107 120.608 -5.55112e-17
658 2 166.43 107.936 -5.55112e-17
659 2 101.179 137.061 -5.55112e-17
660 1 25.4713 12.7608 -5.55112e-17
661 2 16.1273 37.2101 -5.55112e-17
662 2 135.55 116.795 -5.55112e-17
663 1 160.873 112.603 -5.55112e-17
664 1 79.7239 138.438 -5.55112e-17
665 1 135.773 144.05 -5.55112e-17
666 1 202.869 182.769 -5.55112e-17
667 1 0.87503 116.669 -5.55112e-17
668 1 133.744 156.74 -5.55112e-17
669 1 106.897 160.799 -5.55112e-17
670 2 211.991 160.728 -5.55112e-17
671 1 3.95003 16.5081 -5.55112e-17
672 1 192.783 144.212 -5.55112e-17
673 2 49.0427 85.3983 -5.55112e-17
674 2 182.263 206.237 -5.55112e-17
675 2 148.959 1.835 -5.55112e-17
676 1 181.813 157.825 -5.55112e-17
677 2 52.3898 55.0577 -5.55112e-17
678 1 90.7342 107.645 -5.55112e-17
679 1 87.0806 62.3189 -5.55112e-17
680 2 67.1673 11.1708 -5.55112e-17
681 1 5.39784 9.66674 -5.55112e-17
682 1 141.131 171.689 -5.55112e-17
683 2 93.7742 120.683 -5.55112e-17
684 1 22.8486 180.174 -5.55112e-17
685 1 83.3232 206.649 -5.55112e-17
686 1 148.389 153.43 -5.55112e-17
687 1 116.918 58.203 -5.55112e-17
688 1 152.441 97.96 -5.55112e-17
689 2 12.8367 141.673 -5.55112e-17
690 1 47.1008 121.1 -5.55112e-17
691 2 66.4864 114.823 -5.55112e-17
692 2 174.787 178.18 -5.55112e-17
693 1 161.917 97.0445 -5.55112e-17
694 2 141.915 150.989 -5.55112e-17
695 2 186.621 32.2442 -5.55112e-17
696 2 28.3832 85.1583 -5.55112e-17
697 1 102.223 30.0273 -5.55112e-17
698 2 41.0321 20.5099 -5.55112e-17
699 1 54.724 199.905 -5.55112e-17
700 2 18.0184 125.635 -5.55112e-17
701 2 27.2484 65.4807 -5.55112e-17
702 1 158.707 5.5792 -5.55112e-17
703 1 196.732 65.4071 -5.55112e-17
704 1 154.487 126.355 -5.55112e-17
705 1 44.6111 122.258 -5.55112e-17
706 1 74.9342 161.198 -5.55112e-17
707 1 181.501 66.2449 -5.55112e-17
708 2 195.347 101.742 -5.55112e-17
709 1 54.0552 160.38 -5.55112e-17
710 2 91.86 15.5388 -5.55112e-17
711 2 1.33419 141.064 -5.55112e-17
712 1 83.5269 213.702 -5.55112e-17
713 1 4.46771 151.824 -5.55112e-17
714 2 147.309 143.595 -5.55112e-17
715 2 133.305 86.6712 -5.55112e-17
716 1 88.884 60.9736 -5.55112e-17
717 1 17.7346 61.3814 -5.55112e-17
718 2 80.9387 98.9659 -5.55112e-17
719 1 68.2376 198.036 -5.55112e-17
720 2 53.0385 202.256 -5.55112e-17
721 2 44.022 212.209 -5.55112e-17
722 2 65.3111 137.742 -5.55112e-17
723 2 15.2948 165.395 -5.55112e-17
724 2 201.492 104.644 -5.55112e-17
725 2 19.2405 49.1197 -5.55112e-17
726 2 174.225 125.516 -5.55112e-17
727 2 35.8883 109.494 -5.55112e-17
728 1 176.583 77.7039 -5.55112e-17
729 2 158.103 138.076 -5.55112e-17
730 2 175.424 94.3185 -5.55112e-17
731 1 10.2835 23.7146 -5.55112e-17
732 2 99.2729 86.8815 -5.55112e-17
733 2 150.126 139.766 -5.55112e-17
734 2 58.0379 193.984 -5.55112e-17
735 2 149.203 72.1829 -5.55112e-17
736 1 172.199 177.415 -5.55112e-17
737 2 46.2785 43.577 -5.55112e-17
738 2 71.1565 208.433 -5.55112e-17
739 2 187.844 132.011 -5.55112e-17
740 2 40.9344 113.224 -5.55112e-17
741 2 201.105 113.607 -5.55112e-17
742 1 74.157 98.7392 -5.55112e-17
743 2 79.5657 75.2808 -5.55112e-17
744 1 147.119 50.163 -5.55112e-17
745 2 13.5507 77.3242 -5.55112e-17
746 1 218.983 121.404 -5.55112e-17
747 1 98.177 162.789 -5.55112e-17
748 2 68.5548 195.487 -5.55112e-17
749 1 213.601 165.872 -5.55112e-17
750 1 139.353 147.468 -5.55112e-17
751 1 143.352 89.3987 -5.55112e-17
752 2 194.654 169.908 -5.55112e-17
753 1 36.8812 180.048 -5.55112e-17
754 2 67.4999 81.0984 -5.55112e-17
755 1 8.83272 82.5492 -5.55112e-17
756 2 177.432 57.67 -5.55112e-17
757 1 115.725 16.7829 -5.55112e-17
758 2 96.4649 25.7137 -5.55112e-17
759 1 95.1607 132.889 -5.55112e-17
760 1 168.508 65.2338 -5.55112e-17
761 2 215.32 98.6776 -5.55112e-17
762 1 167.325 110.326 -5.55112e-17
763 2 5.8139 157.075 -5.55112e-17
764 2 43.8748 190.323 -5.55112e-17
765 1 21.7221 159.996 -5.55112e-17
766 2 103.745 46.8292 -5.55112e-17
767 2 205.695 148.797 -5.55112e-17
768 2 72.8348 61.6934 -5.55112e-17
769 2 187.937 97.727 -5.55112e-17
770 1 134.177 17.9749 -5.55112e-17
771 1 65.3262 63.6099 -5.55112e-17
772 1 132.141 2.5502 -5.55112e-17
773 2 164.554 171.045 -5.55112e-17
774 1 88.8419 84.6274 -5.55112e-17
775 1 104.488 77.4227 -5.55112e-17
776 2 190.982 104.989 -5.55112e-17
777 2 43.4178 78.9774 -5.55112e-17
778 1 75.4321 16.7841 -5.55112e-17
779 1 48.739 62.6857 -5.55112e-17
780 2 84.1905 49.5021 -5.55112e-17
781 1 25.2436 171.388 -5.55112e-17
782 2 122.627 170.282 -5.55112e-17
783 1 75.3635 61.1507 -5.55112e-17
784 2 95.5377 115.296 -5.55112e-17
785 1 204.188 82.3231 -5.55112e-17
786 1 47.3905 5.94796 -5.55112e-17
787 2 39.1302 209.929 -5.55112e-17
788 2 166.824 180.9 -5.55112e-17
789 2 17.9102 146.612 -5.55112e-17
790 2 76.5127 9.26855 -5.55112e-17
791 2 185.251 51.2846 -5.55112e-17
792 1 212.86 132.357 -5.55112e-17
793 1 96.63 170.549 -5.55112e-17
794 2 209.848 7.22773 -5.55112e-17
795 2 11.4237 188.53 -5.55112e-17
796 1 69.0963 215.657 -5.55112e-17
797 1 50.3548 31.2116 -5.55112e-17
798 1 213.488 56.454 -5.55112e-17
799 2 105.72 155.413 -5.55112e-17
800 1 53.2541 42.9596 -5.55112e-17
801 2 70.0251 84.8054 -5.55112e-17
802 1 90.7393 217.012 -5.55112e-17
803 1 143.103 24.8517 -5.55112e-17
804 1 210.367 124.694 -5.55112e-17
805 2 177.691 117.048 -5.55112e-17
806 2 181.301 154.724 -5.55112e-17
807 2 208.784 29.0859 -5.55112e-17
808 2 78.2887 150.507 -5.55112e-17
809 1 177.223 62.7429 -5.55112e-17
810 2 23.6648 173.224 -5.55112e-17
811 2 183.47 56.2018 -5.55112e-17
812 1 121.887 184.934 -5.55112e-17
813 1 20.7973 84.4446 -5.55112e-17
814 1 2.49734 205.427 -5.55112e-17
815 1 145.324 32.0872 -5.55112e-17
816 1 206.938 51.6064 -5.55112e-17
817 2 64.457 71.1358 -5.55112e-17
818 2 30.3578 122.879 -5.55112e-17
819 2 210.94 68.2704 -5.55112e-17
820 1 9.76587 59.6384 -5.55112e-17
821 1 64.7552 57.9963 -5.55112e-17
822 2 131.706 35.5889 -5.55112e-17
823 1 184.3 89.8829 -5.55112e-17
824 1 176.043 89.4347 -5.55112e-17
825 1 159.62 190.213 -5.55112e-17
826 2 178.777 82.2651 -5.55112e-17
827 2 105.264 23.4241 -5.55112e-17
828 1 52.2277 91.9187 -5.55112e-17
829 2 127.789 92.4448 -5.55112e-17
830 1 3.26367 156.293 -5.55112e-17
831 2 183.433 218.669 -5.55112e-17
832 2 25.572 53.9315 -5.55112e-17
833 2 96.3909 40.8266 -5.55112e-17
834 1 70.2164 164.193 -5.55112e-17
835 1 181.457 139.82 -5.55112e-17
836 1 153.266 69.8135 -5.55112e-17
837 2 167.836 92.3426 -5.55112e-17
838 2 91.3449 26.1413 -5.55112e-17
839 1 40.3377 31.2076 -5.55112e-17
840 2 14.2353 116.928 -5.55112e-17
841 2 201.777 11.2855 -5.55112e-17
842 1 173.901 157.673 -5.55112e-17
843 1 206.475 30.419 -5.55112e-17
844 2 8.84995 25.7677 -5.55112e-17
845 1 47.0139 150.943 -5.55112e-17
846 2 127.555 211.833 -5.55112e-17
847 1 88.489 143.083 -5.55112e-17
848 2 113.823 6.02535 -5.55112e-17
849 1 25.4738 33.3163 -5.55112e-17
850 2 60.9451 68.1799 -5.55112e-17
851 2 216.645 30.7404 -5.55112e-17
852 1 136.867 182.97 -5.55112e-17
853 1 188.285 104.742 -5.55112e-17
854 2 104.196 144.429 -5.55112e-17
855 2 161.437 117.536 -5.55112e-17
856 1 77.4045 159.94 -5.55112e-17
857 2 78.964 121.377 -5.55112e-17