ITEM: TIMESTEP
0
ITEM: NUMBER OF ATOMS
7200
ITEM: BOX BOUNDS xy xz yz pp pp pp
0.0000000000000000e+00 2.1900000000000000e+02 0.0000000000000000e+00
0.0000000000000000e+00 2.1900000000000000e+02 0.0000000000000000e+00
-3.6499999999999999e-01 3.6499999999999999e-01 0.0000000000000000e+00
ITEM: ATOMS id type x y z
1 1 180.787 9.53221 -5.55112e-17
2 2 6.64924 217.829 -5.55112e-17
3 2 133.351 159.251 -5.55112e-17
4 1 115.585 117.168 -5.55112e-17
5 1 41.175 77.2947 -5.55112e-17
6 1 131.143 7.96375 -5.55112e-17
7 2 182.732 159.394 -5.55112e-17
8 2 143.43 24.0858 -5.55112e-17
9 1 31.5186 205.027 -5.55112e-17
10 2 62.6519 165.167 -5.55112e-17
11 2 161.317 113.665 -5.55112e-17
12 1 41.3942 206.514 -5.55112e-17
13 2 182.94 80.823 -5.55112e-17
14 1 93.9407 167.784 -5.55112e-17
15 2 4.72286 4.84925 -5.55112e-17
16 2 18.5545 133.372 -5.55112e-17
17 1 48.0746 15.324 -5.55112e-17
18 2 9.66311 153.54 -5.55112e-17
19 1 53.9141 128.498 -5.55112e-17
20 1 120.045 27.2794 -5.55112e-17
21 1 166.137 163.17 -5.55112e-17
22 2 64.8508 9.35915 -5.55112e-17
23 2 50.3986 193.183 -5.55112e-17
24 2 204.281 76.2304 -5.55112e-17
25 2 34.9925 190.995 -5.55112e-17
26 2 116.691 214.064 -5.55112e-17
27 1 213.935 154.081 -5.55112e-17
28 2 47.6089 177.104 -5.55112e-17
29 2 83.375 47.884 -5.55112e-17
30 2 109.14 66.5247 -5.55112e-17
31 2 146.598 87.5561 -5.55112e-17
32 1 65.3301 119.234 -5.55112e-17
33 2 138.331 91.1448 -5.55112e-17
34 2 71.216 114.28 -5.55112e-17
35 2 82.6075 64.0075 -5.55112e-17
36 1 164.829 161.213 -5.55112e-17
37 1 145.416 181.057 -5.55112e-17
38 2 210.373 143.596 -5.55112e-17
39 1 196.584 51.5637 -5.55112e-17
40 2 169.186 102.814 -5.55112e-17
41 1 216.402 28.7256 -5.55112e-17
42 1 133.013 27.6037 -5.55112e-17
43 1 174.999 149.035 -5.55112e-17
44 1 147.379 146.505 -5.55112e-17
45 2 59.0314 33.0467 -5.55112e-17
46 1 139.793 166.469 -5.55112e-17
47 2 187.207 42.4117 -5.55112e-17
48 2 211.98 116.668 -5.55112e-17
49 1 198.193 8.22835 -5.55112e-17
50 2 12.4765 75.4752 -5.55112e-17
51 1 194.261 204.676 -5.55112e-17
52 1 93.8554 78.4159 -5.55112e-17
53 2 120.726 201.41 -5.55112e-17
54 1 53.6404 32.4243 -5.55112e-17
55 2 54.6605 134.223 -5.55112e-17
56 1 12.2639 134.424 -5.55112e-17
57 2 214.116 83.4851 -5.55112e-17
58 1 195.241 38.068 -5.55112e-17
59 1 147.462 90.1056 -5.55112e-17
60 2 187.077 79.1558 -5.55112e-17
61 1 164.267 145.634 -5.55112e-17
62 1 93.4889 145.936 -5.55112e-17
63 2 73.1131 207.169 -5.55112e-17
64 1 14.2595 51.7728 -5.55112e-17
65 2 138.75 122.382 -5.55112e-17
66 2 29.0049 124.204 -5.55112e-17
67 2 158.7 99.9863 -5.55112e-17
68 1 130.7 89.7886 -5.55112e-17
69 2 141.193 168.78 -5.55112e-17
70 1 133.486 104.981 -5.55112e-17
71 1 201.42 116.759 -5.55112e-17
72 2 19.0735 149.264 -5.55112e-17
73 2 211.396 174.708 -5.55112e-17
74 2 132.867 17.2718 -5.55112e-17
75 1 63.5594 107.867 -5.55112e-17
76 2 159.288 167.171 -5.55112e-17
77 2 202.606 204.998 -5.55112e-17
78 1 138.255 185.851 -5.55112e-17
79 2 47.0946 42.3348 -5.55112e-17
80 1 36.911 66.4638 -5.55112e-17
81 1 150.977 181.523 -5.55112e-17
82 1 162.25 71.9113 -5.55112e-17
83 1 27.818 71.1044 -5.55112e-17
84 2 133.244 9.7413 -5.55112e-17
85 2 173.907 186.69 -5.55112e-17
86 2 26.2708 61.0291 -5.55112e-17
87 2 22.145 105.271 -5.55112e-17
88 1 82.8657 155.783 -5.55112e-17
89 2 135.489 139.204 -5.55112e-17
90 2 149.167 50.2379 -5.55112e-17
91 2 35.1159 181.633 -5.55112e-17
92 1 27.8728 170.335 -5.55112e-17
93 2 94.104 148.768 -5.55112e-17
94 2 153.939 96.8556 -5.55112e-17
95 1 205.05 18.7831 -5.55112e-17
96 2 212.859 57.5418 -5.55112e-17
97 2 23.2532 209.124 -5.55112e-17
98 2 17.5581 42.0102 -5.55112e-17
99 1 62.238 10.3828 -5.55112e-17
100 2 218.439 27.3094 -5.55112e-17
101 1 159.645 129.836 -5.55112e-17
102 1 55.6264 162.797 -5.55112e-17
103 2 7.12239 100.968 -5.55112e-17
104 2 47.2252 66.7733 -5.55112e-17
105 1 195.278 20.3737 -5.55112e-17
106 1 177.337 79.4649 -5.55112e-17
107 1 198.771 128.587 -5.55112e-17
108 1 101.726 11.0823 -5.55112e-17
109 2 81.8711 60.9913 -5.55112e-17
110 2 149.243 183.87 -5.55112e-17
111 1 3.28846 92.2213 -5.55112e-17
112 2 208.421 94.2839 -5.55112e-17
113 1 159.837 25.8003 -5.55112e-17
114 1 39.4924 100.35 -5.55112e-17
115 2 218.648 112.874 -5.55112e-17
116 2 139.564 11.9692 -5.55112e-17
117 1 123.02 135.238 -5.55112e-17
118 1 100.865 109.243 -5.55112e-17
119 2 75.7566 120.956 -5.55112e-17
120 2 163.98 76.6063 -5.55112e-17
121 1 206.09 109.019 -5.55112e-17
122 2 156.32 149.906 -5.55112e-17
123 2 28.045 126.882 -5.55112e-17
124 1 115.046 187.343 -5.55112e-17
125 1 148.25 186.449 -5.55112e-17
126 2 74.8772 44.2974 -5.55112e-17
127 2 35.9544 56.0577 -5.55112e-17
128 1 113.808 112.277 -5.55112e-17
129 1 152.851 159.575 -5.55112e-17
130 2 150.3 188.751 -5.55112e-17
131 1 122.686 87.8953 -5.55112e-17
132 1 151.177 205.677 -5.55112e-17
133 1 206.815 153.503 -5.55112e-17
134 1 102.885 175.794 -5.55112e-17
135 2 163.075 51.8614 -5.55112e-17
136 1 129.536 147.582 -5.55112e-17
137 1 106.421 196.583 -5.55112e-17
138 2 136.421 124.79 -5.55112e-17
139 1 114.501 58.9968 -5.55112e-17
140 1 164.15 23.6088 -5.55112e-17
141 1 37.2898 27.6741 -5.55112e-17
142 1 35.8227 193.254 -5.55112e-17
143 1 27.5899 58.9353 -5.55112e-17
144 1 217.288 73.8346 -5.55112e-17
145 2 1.78593 26.3354 -5.55112e-17
146 1 207.401 120.139 -5.55112e-17
147 2 3.60075 89.7759 -5.55112e-17
148 1 64.9271 93.6063 -5.55112e-17
149 1 196.51 138.802 -5.55112e-17
150 2 81.8291 100.492 -5.55112e-17
151 1 118.296 134.356 -5.55112e-17
152 1 195.085 188.931 -5.55112e-17
153 2 63.839 141.671 -5.55112e-17
154 1 164.121 62.7458 -5.55112e-17
155 2 190.05 65.8713 -5.55112e-17
156 2 94.7283 170.169 -5.55112e-17
157 2 189.38 198.008 -5.55112e-17
158 2 103.513 196.079 -5.55112e-17
159 2 65.6791 164.452 -5.55112e-17
160 2 71.3223 69.3051 -5.55112e-17
161 2 95.945 123.947 -5.55112e-17
162 1 202.569 82.6246 -5.55112e-17
163 1 27.2629 63.3616 -5.55112e-17
164 2 83.2507 139.307 -5.55112e-17
165 1 21.7394 61.1422 -5.55112e-17
166 2 38.9078 205.467 -5.55112e-17
167 1 118.406 153.783 -5.55112e-17
168 1 217.755 202.044 -5.55112e-17
169 2 43.1622 194.502 -5.55112e-17
170 1 140.03 182.087 -5.55112e-17
171 1 128.637 98.3415 -5.55112e-17
172 1 21.6048 162.574 -5.55112e-17
173 1 50.5136 161.854 -5.55112e-17
174 2 63.8156 173.517 -5.55112e-17
175 2 130.305 40.1883 -5.55112e-17
176 1 117.47 175.739 -5.55112e-17
177 2 128.069 216.311 -5.55112e-17
178 1 26.7162 9.10119 -5.55112e-17
179 2 120.666 17.9734 -5.55112e-17
180 1 13.3657 114.507 -5.55112e-17
181 1 11.2452 137.004 -5.55112e-17
182 1 89.569 135.275 -5.55112e-17
183 1 21.3665 116.377 -5.55112e-17
184 2 180.083 214.384 -5.55112e-17
185 2 206.203 99.2516 -5.55112e-17
186 2 90.9446 217.589 -5.55112e-17
187 2 152.937 187.434 -5.55112e-17
188 2 40.2958 208.737 -5.55112e-17
189 1 165.479 21.4799 -5.55112e-17
190 1 130.317 45.3797 -5.55112e-17
191 2 209.248 98.8321 -5.55112e-17
192 2 75.6104 40.6205 -5.55112e-17
193 1 176.275 164.197 -5.55112e-17
194 1 52.314 47.1536 -5.55112e-17
195 2 71.761 43.6371 -5.55112e-17
196 1 60.4421 163.274 -5.55112e-17
197 2 63.6384 91.3095 -5.55112e-17
198 2 202.149 11.1833 -5.55112e-17
199 2 80.7804 171.8 -5.55112e-17
200 2 10.7976 65.0242 -5.55112e-17
201 2 137.951 195.859 -5.55112e-17
202 1 119.732 84.5919 -5.55112e-17
203 1 57.1323 47.3829 -5.55112e-17
204 2 12.2019 124.097 -5.55112e-17
205 2 13.0764 171.792 -5.55112e-17
206 2 178.111 145.082 -5.55112e-17
207 1 50.6431 198.472 -5.55112e-17
208 2 137.053 13.8007 -5.55112e-17
209 2 19.7367 141.171 -5.55112e-17
210 1 202.594 56.0609 -5.55112e-17
211 1 191.558 26.216 -5.55112e-17
212 1 81.0966 86.9228 -5.55112e-17
213 1 122.007 130.037 -5.55112e-17
214 2 6.92683 14.6151 -5.55112e-17
215 1 59.2731 179.729 -5.55112e-17
216 1 97.9946 56.1071 -5.55112e-17
217 1 185.719 28.9373 -5.55112e-17
218 2 3.9594 167.082 -5.55112e-17
219 2 158.089 195.003 -5.55112e-17
220 1 148.078 58.3791 -5.55112e-17
221 2 39.9997 40.7275 -5.55112e-17
222 1 169.235 100.228 -5.55112e-17
223 1 12.3252 139.092 -5.55112e-17
224 2 122.003 69.7526 -5.55112e-17
225 2 127.039 187.977 -5.55112e-17
226 1 18.9028 11.3907 -5.55112e-17
227 2 216.34 3.78532 -5.55112e-17
228 2 51.2604 95.5256 -5.55112e-17
229 1 17.366 7.2149 -5.55112e-17
230 1 38.7584 75.174 -5.55112e-17
231 2 144.618 149.99 -5.55112e-17
232 1 22.3067 9.4668 -5.55112e-17
233 2 61.5229 38.5591 -5.55112e-17
234 1 145.574 38.8556 -5.55112e-17
235 1 149.574 103.18 -5.55112e-17
236 2 147.791 55.7949 -5.55112e-17
237 2 108.191 161.692 -5.55112e-17
238 2 102.121 123.631 -5.55112e-17
239 1 45.6874 203.742 -5.55112e-17
240 1 120.288 94.5705 -5.55112e-17
241 2 19.6574 123.262 -5.55112e-17
242 1 139.824 49.9454 -5.55112e-17
243 2 195.619 182.075 -5.55112e-17
244 2 31.4105 15.7771 -5.55112e-17
245 1 199.731 204.823 -5.55112e-17
246 2 105.799 110.422 -5.55112e-17
247 2 127.125 146.709 -5.55112e-17
248 1 78.6389 31.7481 -5.55112e-17
249 1 123.808 114.43 -5.55112e-17
250 1 132.992 66.2734 -5.55112e-17
251 2 88.973 68.8326 -5.55112e-17
252 1 140.874 176.716 -5.55112e-17
253 2 56.6382 106.211 -5.55112e-17
254 2 196.982 204.813 -5.55112e-17
255 2 48.5534 82.8633 -5.55112e-17
256 1 22.0842 197.694 -5.55112e-17
257 2 66.1515 157.068 -5.55112e-17
258 1 179.605 106.809 -5.55112e-17
259 2 169.905 137.163 -5.55112e-17
260 1 41.0739 158.923 -5.55112e-17
261 2 138.271 155.779 -5.55112e-17
262 2 209.428 81.1754 -5.55112e-17
263 2 136.09 206.104 -5.55112e-17
264 1 109.252 47.6399 -5.55112e-17
265 1 151.051 193.399 -5.55112e-17
266 1 66.6017 186.003 -5.55112e-17
267 2 134.129 25.0724 -5.55112e-17
268 1 202.93 70.0394 -5.55112e-17
269 2 8.4207 61.0404 -5.55112e-17
270 2 9.54462 191.523 -5.55112e-17
271 2 168.536 82.2357 -5.55112e-17
272 1 120.01 3.9807 -5.55112e-17
273 1 18.6241 78.5542 -5.55112e-17
274 1 186.616 167.847 -5.55112e-17
275 1 134.119 123.708 -5.55112e-17
276 1 187.023 86.5531 -5.55112e-17
277 1 111.694 7.77412 -5.55112e-17
278 2 60.7665 135.98 -5.55112e-17
279 2 149.902 90.6049 -5.55112e-17
280 1 113.544 198.887 -5.55112e-17
281 2 100.324 140.223 -5.55112e-17
282 2 43.7202 151.492 -5.55112e-17
283 2 198.37 165.202 -5.55112e-17
284 1 119.063 120.018 -5.55112e-17
285 1 84.9792 156.875 -5.55112e-17
286 2 60.0064 9.38411 -5.55112e-17
287 2 94.0447 53.1522 -5.55112e-17
288 1 84.22 105.697 -5.55112e-17
289 2 163.357 7.43035 -5.55112e-17
290 1 153.35 31.523 -5.55112e-17
291 2 162.485 191.886 -5.55112e-17
292 1 50.0695 80.8741 -5.55112e-17
293 1 169.589 119.259 -5.55112e-17
294 1 21.1674 153.785 -5.55112e-17
295 2 31.2617 116.417 -5.55112e-17
296 1 173.312 138.682 -5.55112e-17
297 1 18.8414 29.7971 -5.55112e-17
298 2 2.93604 112.515 -5.55112e-17
299 1 182.277 46.892 -5.55112e-17
300 2 169.474 185.975 -5.55112e-17
301 2 24.1659 201.737 -5.55112e-17
302 2 170.589 105.561 -5.55112e-17
303 1 36.4741 164.051 -5.55112e-17
304 1 116.35 112.756 -5.55112e-17
305 1 86.9948 193.24 -5.55112e-17
306 2 73.76 18.765 -5.55112e-17
307 2 155.883 0.679851 -5.55112e-17
308 2 187.586 188.957 -5.55112e-17
309 1 113.391 88.3689 -5.55112e-17
310 1 183.459 156.873 -5.55112e-17
311 1 140.698 130.847 -5.55112e-17
312 2 101.335 73.6691 -5.55112e-17
313 2 204.448 16.4362 -5.55112e-17
314 1 142.526 126.553 -5.55112e-17
315 2 69.9548 75.945 -5.55112e-17
316 1 128.998 53.8146 -5.55112e-17
317 1 157.808 179.319 -5.55112e-17
318 1 4.28351 190.432 -5.55112e-17
319 2 155.651 202.681 -5.55112e-17
320 1 3.07815 55.1968 -5.55112e-17
321 1 208.387 53.9355 -5.55112e-17
322 1 41.9575 125.216 -5.55112e-17
323 2 75.2874 178.578 -5.55112e-17
324 2 24.1739 62.7831 -5.55112e-17
325 2 214.303 15.9381 -5.55112e-17
326 1 179.325 11.3299 -5.55112e-17
327 1 3.22228 46.3588 -5.55112e-17
328 2 38.4236 13.2757 -5.55112e-17
329 2 53.8074 97.6633 -5.55112e-17
330 2 110.808 87.5611 -5.55112e-17
331 2 197.217 14.1788 -5.55112e-17
332 2 110.735 140.262 -5.55112e-17
333 2 24.6741 126.806 -5.55112e-17
334 2 209.855 16.0042 -5.55112e-17
335 1 160.903 144.968 -5.55112e-17
336 2 26.0529 124.315 -5.55112e-17
337 2 129.352 192.176 -5.55112e-17
338 1 167.822 158.321 -5.55112e-17
339 2 54.9975 192.974 -5.55112e-17
340 2 192.118 136.711 -5.55112e-17
341 2 52.9482 73.0489 -5.55112e-17
342 2 105.964 146.778 -5.55112e-17
343 2 212.864 218.668 -5.55112e-17
344 1 103.15 109.946 -5.55112e-17
345 2 77.9539 11.1719 -5.55112e-17
346 2 18.6983 94.2023 -5.55112e-17
347 1 140.342 102.796 -5.55112e-17
348 1 212.853 206.899 -5.55112e-17
349 2 159.621 78.1482 -5.55112e-17
350 2 45.1804 170.152 -5.55112e-17
351 1 176.037 66.4946 -5.55112e-17
352 1 211.017 154.902 -5.55112e-17
353 2 137.815 117.022 -5.55112e-17
354 2 50.1077 179.018 -5.55112e-17
355 1 214.784 151.716 -5.55112e-17
356 2 139.414 174.095 -5.55112e-17
357 1 83.3797 204.878 -5.55112e-17
358 1 119.837 72.8204 -5.55112e-17
359 1 18.037 139.138 -5.55112e-17
360 1 35.3561 217.26 -5.55112e-17
361 2 177.545 38.6239 -5.55112e-17
362 2 141.339 120.39 -5.55112e-17
363 1 86.7374 195.814 -5.55112e-17
364 2 32.3298 56.0351 -5.55112e-17
365 1 2.75089 153.007 -5.55112e-17
366 1 99.956 1.73777 -5.55112e-17
367 1 187.602 72.3827 -5.55112e-17
368 1 45.2794 178.481 -5.55112e-17
369 2 79.5873 125.684 -5.55112e-17
370 1 135.908 131.509 -5.55112e-17
371 2 64.0044 83.7774 -5.55112e-17
372 1 106.338 217.155 -5.55112e-17
373 2 86.5737 201.725 -5.55112e-17
374 2 196.924 114.535 -5.55112e-17
375 1 56.6883 78.4403 -5.55112e-17
376 1 91.6253 166.316 -5.55112e-17
377 2 117.898 82.685 -5.55112e-17
378 2 167.009 137.838 -5.55112e-17
379 2 188.338 0.524799 -5.55112e-17
380 1 184.258 24.3908 -5.55112e-17
381 1 177.32 197.398 -5.55112e-17
382 1 141.952 51.3632 -5.55112e-17
383 1 77.8104 84.5932 -5.55112e-17
384 2 33.5564 58.7381 -5.55112e-17
385 1 177.566 105.608 -5.55112e-17
386 2 152.965 127.917 -5.55112e-17
387 1 203.489 58.2408 -5.55112e-17
388 1 150.809 133.088 -5.55112e-17
389 2 151.113 98.0664 -5.55112e-17
390 1 139.425 9.41677 -5.55112e-17
391 1 210.044 202.911 -5.55112e-17
392 2 31.8712 89.7403 -5.55112e-17
393 2 218.743 195.714 -5.55112e-17
394 1 37.9488 174.494 -5.55112e-17
395 1 20.2005 33.9797 -5.55112e-17
396 2 89.9887 100.662 -5.55112e-17
397 1 50.4395 38.0192 -5.55112e-17
398 2 159.169 135.162 -5.55112e-17
399 2 185.426 88.4961 -5.55112e-17
400 2 37.6043 50.3243 -5.55112e-17
401 2 45.6405 161.963 -5.55112e-17
402 1 46.5145 212.734 -5.55112e-17
403 1 34.606 66.4983 -5.55112e-17
404 2 79.4272 81.9786 -5.55112e-17
405 1 175.411 199.321 -5.55112e-17
406 2 213.27 133.057 -5.55112e-17
407 1 138.395 62.1197 -5.55112e-17
408 1 134.598 12.0985 -5.55112e-17
409 2 180.737 118.388 -5.55112e-17
410 2 44.8039 86.3021 -5.55112e-17
411 1 127.926 102.944 -5.55112e-17
412 1 150.512 22.7518 -5.55112e-17
413 1 86.7868 96.0067 -5.55112e-17
414 2 194.341 213.556 -5.55112e-17
415 1 96.139 89.8453 -5.55112e-17
416 1 107.801 45.4394 -5.55112e-17
417 2 100.779 153.728 -5.55112e-17
418 2 70.8348 166.801 -5.55112e-17
419 2 197.671 143.909 -5.55112e-17
420 2 100.431 92.4441 -5.55112e-17
421 1 100.983 87.8528 -5.55112e-17
422 1 17.1484 119.164 -5.55112e-17
423 2 117.585 186.471 -5.55112e-17
424 2 18.4469 19.2767 -5.55112e-17
425 2 112.362 137.658 -5.55112e-17
426 1 210.519 66.798 -5.55112e-17
427 2 59.2126 77.3674 -5.55112e-17
428 1 22.107 179.55 -5.55112e-17
429 2 209.859 103.234 -5.55112e-17
430 2 104.34 115.126 -5.55112e-17
431 1 11.7075 21.1002 -5.55112e-17
432 2 186.53 18.0846 -5.55112e-17
433 1 139.519 210.438 -5.55112e-17
434 1 207.959 164.97 -5.55112e-17
435 1 140.08 89.2158 -5.55112e-17
436 2 58.7137 22.7298 -5.55112e-17
437 2 161.744 69.2993 -5.55112e-17
438 2 206.555 170.26 -5.55112e-17
439 2 115.3 174.119 -5.55112e-17
440 2 64.4275 116.659 -5.55112e-17
441 1 136.092 190.795 -5.55112e-17
442 1 28.9335 108.361 -5.55112e-17
443 2 68.972 71.1377 -5.55112e-17
444 1 188.213 91.1794 -5.55112e-17
445 1 216.71 189.846 -5.55112e-17
446 2 125.054 156.819 -5.55112e-17
447 2 84.748 14.7257 -5.55112e-17
448 2 144.581 167.573 -5.55112e-17
449 1 142.845 157.439 -5.55112e-17
450 1 215.525 95.8979 -5.55112e-17
451 1 85.7156 217.61 -5.55112e-17
452 2 189.855 17.9835 -5.55112e-17
453 1 6.77777 147.293 -5.55112e-17
454 1 183.126 73.2636 -5.55112e-17
455 2 56.2687 138.912 -5.55112e-17
456 1 140.796 155.968 -5.55112e-17
457 2 176.748 129.142 -5.55112e-17
458 2 151.118 149.602 -5.55112e-17
459 2 161.985 39.4163 -5.55112e-17
460 1 15.4144 195.008 -5.55112e-17
461 1 108.789 154.487 -5.55112e-17
462 1 63.7483 170.759 -5.55112e-17
463 2 70.4249 211.686 -5.55112e-17
464 2 23.955 30.1664 -5.55112e-17
465 1 148.409 45.8259 -5.55112e-17
466 2 197.726 125.712 -5.55112e-17
467 2 37.85 126.948 -5.55112e-17
468 2 157.364 92.8632 -5.55112e-17
469 2 43.6544 76.4579 -5.55112e-17
470 2 206.513 176.355 -5.55112e-17
471 2 216.142 209.603 -5.55112e-17
472 2 93.7947 18.0481 -5.55112e-17
473 2 166.662 29.2841 -5.55112e-17
474 2 56.7078 109.164 -5.55112e-17
475 1 135.163 208.586 -5.55112e-17
476 2 137.827 37.2324 -5.55112e-17
477 1 10.0922 4.7085 -5.55112e-17
478 1 40.6112 195.658 -5.55112e-17
479 2 87.4963 13.2593 -5.55112e-17
480 1 65.2903 57.5831 -5.55112e-17
481 1 76.6292 173.458 -5.55112e-17
482 2 168.114 216.098 -5.55112e-17
483 1 148.239 193.781 -5.55112e-17
484 1 44.737 120.731 -5.55112e-17
485 2 218.186 162.494 -5.55112e-17
486 1 19.8149 40.7006 -5.55112e-17
487 1 65.7313 24.5093 -5.55112e-17
488 1 37.9014 85.2474 -5.55112e-17
489 1 93.982 125.779 -5.55112e-17
490 1 154.417 77.5275 -5.55112e-17
491 1 152.809 79.5263 -5.55112e-17
492 2 202.243 22.7655 -5.55112e-17
493 1 62.1233 93.7992 -5.55112e-17
494 2 116.962 58.7431 -5.55112e-17
495 1 140.18 95.9136 -5.55112e-17
496 1 61.392 79.6569 -5.55112e-17
497 1 129.013 115.76 -5.55112e-17
498 2 136.47 27.0689 -5.55112e-17
499 2 145.503 16.5907 -5.55112e-17
500 2 128.662 43.1255 -5.55112e-17
501 2 201.081 176.707 -5.55112e-17
502 2 163.945 109.159 -5.55112e-17
503 2 39.7469 27.3258 -5.55112e-17
504 2 73.7275 28.5656 -5.55112e-17
505 2 108.985 180.354 -5.55112e-17
506 1 181.651 5.05467 -5.55112e-17
507 2 62.2054 206.889 -5.55112e-17
508 1 126.554 69.1221 -5.55112e-17
509 1 216.356 31.6718 -5.55112e-17
510 1 164.873 99.1665 -5.55112e-17
511 2 136.329 175.191 -5.55112e-17
512 1 85.7895 78.7682 -5.55112e-17
513 2 116.143 203.321 -5.55112e-17
514 2 196.047 90.7963 -5.55112e-17
515 1 41.5134 90.1011 -5.55112e-17
516 2 86.1481 98.5454 -5.55112e-17
517 1 20.6777 143.74 -5.55112e-17
518 2 11.6542 15.4841 -5.55112e-17
519 1 112.94 95.5894 -5.55112e-17
520 2 9.40448 79.8145 -5.55112e-17
521 2 195.011 198.931 -5.55112e-17
522 1 194.947 32.7765 -5.55112e-17
523 1 118.795 106.191 -5.55112e-17
524 2 185.224 51.2783 -5.55112e-17
525 2 171.096 32.8697 -5.55112e-17
526 2 71.1108 7.72944 -5.55112e-17
527 1 171.278 190.851 -5.55112e-17
528 1 192.873 208.733 -5.55112e-17
529 2 73.6295 200.5 -5.55112e-17
530 2 187.085 69.7378 -5.55112e-17
531 2 129.039 163.574 -5.55112e-17
532 1 84.0775 50.2974 -5.55112e-17
533 2 15.5838 149.056 -5.55112e-17
534 1 29.783 157.613 -5.55112e-17
535 1 175.842 217.573 -5.55112e-17
536 2 10.6245 158.103 -5.55112e-17
537 1 86.5986 88.093 -5.55112e-17
538 1 68.7731 189.615 -5.55112e-17
539 2 94.3996 191.861 -5.55112e-17
540 1 38.3435 15.7992 -5.55112e-17
541 1 108.844 127.704 -5.55112e-17
542 1 47.4584 71.5508 -5.55112e-17
543 2 125.829 159.802 -5.55112e-17
544 1 31.1569 179.561 -5.55112e-17
545 1 153.087 67.6588 -5.55112e-17
546 2 177.647 210.799 -5.55112e-17
547 1 58.1055 71.7759 -5.55112e-17
548 1 96.2213 4.56694 -5.55112e-17
549 2 27.9904 145.077 -5.55112e-17
550 2 0.0655796 200.062 -5.55112e-17
551 2 20.5962 55.3436 -5.55112e-17
552 1 187.268 67.3991 -5.55112e-17
553 2 217.465 167.208 -5.55112e-17
554 2 163.933 188.895 -5.55112e-17
555 2 139.243 125.315 -5.55112e-17
556 1 175.052 207.199 -5.55112e-17
557 1 215.484 36.9757 -5.55112e-17
558 1 59.1016 121.34 -5.55112e-17
559 2 85.5136 130.911 -5.55112e-17
560 2 98.9433 71.8044 -5.55112e-17
561 2 78.3768 156.042 -5.55112e-17
562 2 59.6285 89.2862 -5.55112e-17
563 1 77.501 145.469 -5.55112e-17
564 2 73.1847 96.2426 -5.55112e-17
565 2 203.236 53.5059 -5.55112e-17
566 2 66.5246 108.241 -5.55112e-17
567 1 136.276 182.908 -5.55112e-17
568 1 3.31074 60.3339 -5.55112e-17
569 2 162.261 147.466 -5.55112e-17
570 2 7.57913 43.8889 -5.55112e-17
571 2 197.156 66.9665 -5.55112e-17
572 1 80.6379 128.109 -5.55112e-17
573 2 15.6926 70.5526 -5.55112e-17
574 2 133.408 141.092 -5.55112e-17
575 1 176.616 26.6637 -5.55112e-17
576 1 27.2301 42.4856 -5.55112e-17
577 1 119.167 136.609 -5.55112e-17
578 1 121.029 179.199 -5.55112e-17
579 2 190.056 99.9855 -5.55112e-17
580 1 98.1411 111.84 -5.55112e-17
581 1 71.9647 132.817 -5.55112e-17
582 2 117.332 108.036 -5.55112e-17
583 2 94.2215 91.4693 -5.55112e-17
584 2 83.7791 173.16 -5.55112e-17
585 1 211.5 161.573 -5.55112e-17
586 1 146.082 80.6436 -5.55112e-17
587 1 164.628 79.126 -5.55112e-17
588 2 3.14465 57.7089 -5.55112e-17
589 1 73.31 39.489 -5.55112e-17
590 2 10.9637 210.449 -5.55112e-17
591 2 145.812 45.758 -5.55112e-17
592 1 207.547 143.441 -5.55112e-17
593 1 126.156 98.1408 -5.55112e-17
594 1 210.006 43.8901 -5.55112e-17
595 1 162.725 49.233 -5.55112e-17
596 2 96.6713 87.509 -5.55112e-17
597 2 97.9519 74.6216 -5.55112e-17
598 2 127.279 93.4702 -5.55112e-17
599 2 54.2708 154.465 -5.55112e-17
600 2 19.411 126.286 -5.55112e-17
601 1 131.433 116.128 -5.55112e-17
602 1 165.865 16.2601 -5.55112e-17
603 2 215.072 123.941 -5.55112e-17
604 1 70.6599 178.02 -5.55112e-17
605 2 131.38 106.757 -5.55112e-17
606 2 147.681 97.4922 -5.55112e-17
607 2 52.9375 197.05 -5.55112e-17
608 2 113.266 71.3578 -5.55112e-17
609 1 119.627 58.8187 -5.55112e-17
610 2 137.222 165.619 -5.55112e-17
611 1 218.144 155.722 -5.55112e-17
612 1 199.083 97.7199 -5.55112e-17
613 2 9.78093 134.548 -5.55112e-17
614 1 187.901 16.1177 -5.55112e-17
615 1 138.538 105.125 -5.55112e-17
616 2 113.422 178.885 -5.55112e-17
617 1 59.4886 182.23 -5.55112e-17
618 1 95.5141 29.7752 -5.55112e-17
619 1 129.147 189.682 -5.55112e-17
620 2 27.3793 75.5875 -5.55112e-17
621 2 173.999 62.0767 -5.55112e-17
622 2 158.259 176.753 -5.55112e-17
623 2 101.691 128.751 -5.55112e-17
624 1 71.1358 172.467 -5.55112e-17
625 2 20.736 102.273 -5.55112e-17
626 1 25.4884 23.107 -5.55112e-17
627 2 2.91649 209.119 -5.55112e-17
628 1 138.678 119.738 -5.55112e-17
629 1 14.1308 29.7986 -5.55112e-17
630 2 152.952 13.0376 -5.55112e-17
631 2 158.04 125.26 -5.55112e-17
632 2 9.60926 19.5298 -5.55112e-17
633 2 72.8879 53.512 -5.55112e-17
634 2 5.2328 84.4004 -5.55112e-17
635 2 76.1687 94.7692 -5.55112e-17
636 1 73.0743 115.912 -5.55112e-17
637 1 195.937 123.528 -5.55112e-17
638 1 101.921 37.1253 -5.55112e-17
639 2 180.241 115.593 -5.55112e-17
640 2 139.34 86.2677 -5.55112e-17
641 1 216.979 125.556 -5.55112e-17
642 2 197.749 41.8786 -5.55112e-17
643 1 112.221 93.1831 -5.55112e-17
644 2 140.146 158.507 -5.55112e-17
645 2 51.6416 70.4854 -5.55112e-17
646 1 158.856 115.164 -5.55112e-17
647 2 99.469 137.401 -5.55112e-17
648 2 206.443 40.8766 -5.55112e-17
649 1 94.7822 132.415 -5.55112e-17
650 1 36.7066 156.469 -5.55112e-17
651 1 136.561 145.684 -5.55112e-17
652 2 19.1072 163.905 -5.55112e-17
653 2 169.189 189.305 -5.55112e-17
654 1 188.724 186.443 -5.55112e-17
655 1 113.432 216.826 -5.55112e-17
656 1 201.373 197.535 -5.55112e-17
657 1 118.93 126.885 -5.55112e-17
658 2 155.857 99.8776 -5.55112e-17
659 2 91.8677 171.976 -5.55112e-17
660 1 23.2903 22.0283 -5.55112e-17
661 2 217.608 47.0209 -5.55112e-17
662 2 129.197 122.557 -5.55112e-17
663 1 181.763 123.951 -5.55112e-17
664 1 88.5674 103.291 -5.55112e-17
665 1 135.242 136.559 -5.55112e-17
666 1 147.929 118.342 -5.55112e-17
667 1 211.582 119.441 -5.55112e-17
668 1 118.985 168.712 -5.55112e-17
669 1 80.6473 140.573 -5.55112e-17
670 2 212.173 166.556 -5.55112e-17
671 1 218.636 21.3686 -5.55112e-17
672 1 193.713 173.853 -5.55112e-17
673 2 205.921 73.8555 -5.55112e-17
674 2 153.465 16.0267 -5.55112e-17
675 2 173.428 210.966 -5.55112e-17
676 1 159.168 132.198 -5.55112e-17
677 2 58.0558 101.085 -5.55112e-17
678 1 97.7517 28.5558 -5.55112e-17
679 1 85.0776 24.8415 -5.55112e-17
680 2 80.5112 46.3708 -5.55112e-17
681 1 4.01217 13.5259 -5.55112e-17
682 1 165.34 154.078 -5.55112e-17
683 2 65.9045 146.515 -5.55112e-17
684 1 33.8243 176.464 -5.55112e-17
685 1 33.3081 2.65793 -5.55112e-17
686 1 79.7458 164.97 -5.55112e-17
687 1 107.943 87.4448 -5.55112e-17
688 1 142.54 96.5489 -5.55112e-17
689 2 187.741 158.149 -5.55112e-17
690 1 85.9628 48.6092 -5.55112e-17
691 2 88.416 117.997 -5.55112e-17
692 2 187.996 178.793 -5.55112e-17
693 1 175.285 114.339 -5.55112e-17
694 2 180.381 109.364 -5.55112e-17
695 2 137.779 78.8586 -5.55112e-17
696 2 182.684 136.93 -5.55112e-17
697 1 127.891 14.7993 -5.55112e-17
698 2 41.5352 30.2223 -5.55112e-17
699 1 100.112 211.235 -5.55112e-17
700 2 4.02395 121.969 -5.55112e-17
701 2 9.37876 72.2804 -5.55112e-17
702 1 140.736 55.4059 -5.55112e-17
703 1 185.5 63.9803 -5.55112e-17
704 1 4.84746 117.461 -5.55112e-17
705 1 30.4353 146.698 -5.55112e-17
706 1 102.318 207.724 -5.55112e-17
707 1 86.5749 69.716 -5.55112e-17
708 2 200.1 167.455 -5.55112e-17
709 1 25.8216 175.624 -5.55112e-17
710 2 29.7919 42.5355 -5.55112e-17
711 2 148.516 17.9086 -5.55112e-17
712 1 114.741 53.5933 -5.55112e-17
713 1 196.896 111.71 -5.55112e-17
714 2 144.93 8.60758 -5.55112e-17
715 2 122.937 94.7872 -5.55112e-17
716 1 107.48 54.7874 -5.55112e-17
717 1 42.1951 72.0654 -5.55112e-17
718 2 59.6163 69.4001 -5.55112e-17
719 1 87.9368 76.5319 -5.55112e-17
720 2 53.9268 151.309 -5.55112e-17
721 2 47.2907 4.62062 -5.55112e-17
722 2 68.1798 113.073 -5.55112e-17
723 2 13.8464 155.194 -5.55112e-17
724 2 217.449 66.2296 -5.55112e-17
725 2 203.667 72.5465 -5.55112e-17
726 2 179.56 163.725 -5.55112e-17
727 2 4.44399 73.3031 -5.55112e-17
728 1 157.109 65.8412 -5.55112e-17
729 2 205 133.077 -5.55112e-17
730 2 146.239 133.419 -5.55112e-17
731 1 200.312 49.0921 -5.55112e-17
732 2 79.6412 113.535 -5.55112e-17
733 2 147.995 159.491 -5.55112e-17
734 2 215.718 187.801 -5.55112e-17
735 2 76.491 14.1996 -5.55112e-17
736 1 11.5836 185.755 -5.55112e-17
737 2 44.3051 28.8199 -5.55112e-17
738 2 105.462 189.418 -5.55112e-17
739 2 150.5 136.067 -5.55112e-17
740 2 211.078 93.4376 -5.55112e-17
741 2 192.393 133.049 -5.55112e-17
742 1 122.764 19.9582 -5.55112e-17
743 2 103.232 68.3848 -5.55112e-17
744 1 160.373 33.7047 -5.55112e-17
745 2 196.186 93.7843 -5.55112e-17
746 1 1.01024 67.3611 -5.55112e-17
747 1 48.0238 135.806 -5.55112e-17
748 2 50.5053 164.689 -5.55112e-17
749 1 214.384 171.063 -5.55112e-17
750 1 139.545 110.185 -5.55112e-17
751 1 136.577 93.0442 -5.55112e-17
752 2 191.995 166.318 -5.55112e-17
753 1 26.5066 197.588 -5.55112e-17
754 2 30.4836 103.987 -5.55112e-17
755 1 203.446 90.082 -5.55112e-17
756 2 21.7497 36.1527 -5.55112e-17
757 1 138.855 25.1658 -5.55112e-17
758 2 119.514 46.9934 -5.55112e-17
759 1 110.238 173.276 -5.55112e-17
760 1 138.86 66.9333 -5.55112e-17
761 2 13.0661 85.4139 -5.55112e-17
762 1 207.976 110.321 -5.55112e-17
763 2 16.9486 151.654 -5.55112e-17
764 2 11.4611 162.574 -5.55112e-17
765 1 3.29481 142.979 -5.55112e-17
766 2 100.763 111.774 -5.55112e-17
767 2 13.705 132.05 -5.55112e-17
768 2 136.181 41.8939 -5.55112e-17
769 2 201.827 162.183 -5.55112e-17
770 1 198.216 202.382 -5.55112e-17
771 1 62.2806 41.7575 -5.55112e-17
772 1 101.873 213.001 -5.55112e-17
773 2 162.133 136.392 -5.55112e-17
774 1 25.1568 81.8237 -5.55112e-17
775 1 90.6745 119.155 -5.55112e-17
776 2 194.53 126.08 -5.55112e-17
777 2 1.57803 37.7413 -5.55112e-17
778 1 142.042 189.678 -5.55112e-17
779 1 32.4282 181.426 -5.55112e-17
780 2 105.775 52.4612 -5.55112e-17
781 1 36.844 159.12 -5.55112e-17
782 2 142.406 165.655 -5.55112e-17
783 1 162.676 32.0205 -5.55112e-17
784 2 38.4204 93.1922 -5.55112e-17
785 1 194.743 113.004 -5.55112e-17
786 1 87.0802 207.874 -5.55112e-17
787 2 51.6747 169.533 -5.55112e-17
788 2 147.377 188.934 -5.55112e-17
789 2 39.1305 144.159 -5.55112e-17
790 2 98.9887 47.2477 -5.55112e-17
791 2 184.365 54.51 -5.55112e-17
792 1 188.771 155.633 -5.55112e-17
793 1 81.1102 200.916 -5.55112e-17
794 2 3.20787 205.251 -5.55112e-17
795 2 205.532 158.788 -5.55112e-17
796 1 144.476 164.32 -5.55112e-17
797 1 46.9376 56.1619 -5.55112e-17
798 1 215.342 51.4798 -5.55112e-17
799 2 111.329 165.014 -5.55112e-17
800 1 11.0093 70.3674 -5.55112e-17
801 2 92.4082 128.104 -5.55112e-17
802 1 93.4347 8.77698 -5.55112e-17
803 1 177.768 44.8257 -5.55112e-17
804 1 161.851 103.677 -5.55112e-17
805 2 217.541 90.4575 -5.55112e-17
806 2 159.822 90.5264 -5.55112e-17
807 2 173.577 66.8237 -5.55112e-17
808 2 39.3144 146.632 -5.55112e-17
809 1 143.208 38.4597 -5.55112e-17
810 2 61.8135 180.948 -5.55112e-17
811 2 151.424 215.775 -5.55112e-17
812 1 82.5553 161.499 -5.55112e-17
813 1 204.407 147.345 -5.55112e-17
814 1 7.89377 187.003 -5.55112e-17
815 1 143.302 15.0779 -5.55112e-17
816 1 22.8339 136.689 -5.55112e-17
817 2 34.5354 50.5568 -5.55112e-17
818 2 16.1601 65.1742 -5.55112e-17
819 2 191.548 78.192 -5.55112e-17
820 1 50.9148 116.757 -5.55112e-17
821 1 111.502 214.949 -5.55112e-17
822 2 105.92 15.6176 -5.55112e-17
823 1 203.512 112.878 -5.55112e-17
824 1 171.357 155.083 -5.55112e-17
825 1 178.973 152.778 -5.55112e-17
826 2 178.403 67.7157 -5.55112e-17
827 2 131.066 25.843 -5.55112e-17
828 1 20.2443 76.2434 -5.55112e-17
829 2 120.914 96.9243 -5.55112e-17
830 1 38.4156 168.429 -5.55112e-17
831 2 190.53 21.0497 -5.55112e-17
832 2 164.466 47.3522 -5.55112e-17
833 2 73.1292 21.9173 -5.55112e-17
834 1 76.3298 186.232 -5.55112e-17
835 1 197.542 120.01 -5.55112e-17
836 1 144.719 71.2239 -5.55112e-17
837 2 149.005 100.309 -5.55112e-17
838 2 109.776 92.8438 -5.55112e-17
839 1 97.9902 14.6113 -5.55112e-17
840 2 15.216 138.687 -5.55112e-17
841 2 181.644 67.6844 -5.55112e-17
842 1 179.335 104.244 -5.55112e-17
843 1 214.697 214.1 -5.55112e-17
844 2 7.89929 47.5045 -5.55112e-17
845 1 90.5691 141.924 -5.55112e-17
846 2 152.16 170.602 -5.55112e-17
847 1 58.2141 130.89 -5.55112e-17
848 2 114.02 49.6581 -5.55112e-17
849 1 5.31553 56.1575 -5.55112e-17
850 2 112.332 207.423 -5.55112e-17
851 2 4.59644 30.75 -5.55112e-17
852 1 125.626 167.475 -5.55112e-17
853 1 143.001 142.733 -5.55112e-17
854 2 87.3009 155.305 -5.55112e-17
855 2 168.213 108.091 -5.55112e-17
856 1 72.9636 139.827 -5.55112e-17