ITEM: TIMESTEP
0
ITEM: NUMBER OF ATOMS
7200
ITEM: BOX BOUNDS xy xz yz pp pp pp
0.0000000000000000e+00 2.1900000000000000e+02 0.0000000000000000e+00
0.0000000000000000e+00 2.1900000000000000e+02 0.0000000000000000e+00
-3.6499999999999999e-01 3.6499999999999999e-01 0.0000000000000000e+00
ITEM: ATOMS id type x y z
1 1 2.81066 50.6367 -5.55112e-17
2 2 202.436 48.3391 -5.55112e-17
3 2 98.3127 54.467 -5.55112e-17
4 1 97.3539 32.3903 -5.55112e-17
5 1 127.06 160.944 -5.55112e-17
6 1 174.422 115.359 -5.55112e-17
7 2 158.645 108.636 -5.55112e-17
8 2 129.945 94.6704 -5.55112e-17
9 1 72.2652 209.427 -5.55112e-17
10 2 218.986 99.3743 -5.55112e-17
11 2 97.4789 211.016 -5.55112e-17
12 1 16.6755 212.599 -5.55112e-17
13 2 160.483 194.312 -5.55112e-17
14 1 72.3382 189.237 -5.55112e-17
15 2 32.4071 146.986 -5.55112e-17
16 2 218.825 15.6821 -5.55112e-17
17 1 209.9 83.1747 -5.55112e-17
18 2 87.0391 59.8171 -5.55112e-17
19 1 200.354 2.78822 -5.55112e-17
20 1 46.1814 8.0864 -5.55112e-17
21 1 49.9922 12.3566 -5.55112e-17
22 2 88.7288 12.5034 -5.55112e-17
23 2 32.1323 163.903 -5.55112e-17
24 2 147.32 79.9738 -5.55112e-17
25 2 9.25149 108.379 -5.55112e-17
26 2 54.7921 204.693 -5.55112e-17
27 1 169.637 86.5649 -5.55112e-17
28 2 186.631 202.047 -5.55112e-17
29 2 198.533 209.777 -5.55112e-17
30 2 55.1424 181.147 -5.55112e-17
31 2 196.27 142.811 -5.55112e-17
32 1 55.8354 1.37656 -5.55112e-17
33 2 199.812 88.798 -5.55112e-17
34 2 78.9415 52.4715 -5.55112e-17
35 2 23.9787 76.4616 -5.55112e-17
36 1 205.809 55.6675 -5.55112e-17
37 1 26.7206 77.482 -5.55112e-17
38 2 47.3915 89.3814 -5.55112e-17
39 1 50.8917 155.592 -5.55112e-17
40 2 167.273 25.5889 -5.55112e-17
41 1 6.93584 65.9693 -5.55112e-17
42 1 30.5277 152.64 -5.55112e-17
43 1 194.025 90.7217 -5.55112e-17
44 1 119.605 38.2848 -5.55112e-17
45 2 68.793 169.351 -5.55112e-17
46 1 89.8392 27.1912 -5.55112e-17
47 2 11.588 145.562 -5.55112e-17
48 2 80.4791 137.621 -5.55112e-17
49 1 60.1312 211.605 -5.55112e-17
50 2 94.439 63.8683 -5.55112e-17
51 1 150.942 158.297 -5.55112e-17
52 1 137.666 94.9602 -5.55112e-17
53 2 119.712 199.786 -5.55112e-17
54 1 17.2326 119.72 -5.55112e-17
55 2 139.501 189.629 -5.55112e-17
56 1 159.323 201.576 -5.55112e-17
57 2 9.02646 24.4448 -5.55112e-17
58 1 169.988 103.229 -5.55112e-17
59 1 60.1441 113.253 -5.55112e-17
60 2 160.228 66.459 -5.55112e-17
61 1 165.383 38.0581 -5.55112e-17
62 1 181.622 29.1757 -5.55112e-17
63 2 64.0577 69.2068 -5.55112e-17
64 1 194.486 93.4612 -5.55112e-17
65 2 104.493 179.821 -5.55112e-17
66 2 156.885 127.404 -5.55112e-17
67 2 183.515 8.98002 -5.55112e-17
68 1 18.7947 147.231 -5.55112e-17
69 2 18.8623 218.042 -5.55112e-17
70 1 164.233 154.645 -5.55112e-17
71 1 174.951 25.0515 -5.55112e-17
72 2 192.65 70.7322 -5.55112e-17
73 2 67.1105 129.395 -5.55112e-17
74 2 109.553 148.634 -5.55112e-17
75 1 70.0141 134.011 -5.55112e-17
76 2 132.66 13.1317 -5.55112e-17
77 2 123.105 84.006 -5.55112e-17
78 1 27.8629 176.435 -5.55112e-17
79 2 172.143 125.56 -5.55112e-17
80 1 161.759 40.2055 -5.55112e-17
81 1 195.172 145.232 -5.55112e-17
82 1 89.8721 60.8839 -5.55112e-17
83 1 146.026 116.23 -5.55112e-17
84 2 48.1272 71.288 -5.55112e-17
85 2 128.758 190.699 -5.55112e-17
86 2 16.1128 78.463 -5.55112e-17
87 2 194.433 20.4435 -5.55112e-17
88 1 183.994 129.282 -5.55112e-17
89 2 120.448 52.528 -5.55112e-17
90 2 35.1398 199.439 -5.55112e-17
91 2 5.57666 198.806 -5.55112e-17
92 1 121.293 3.2775 -5.55112e-17
93 2 19.3037 58.3398 -5.55112e-17
94 2 172.716 110.801 -5.55112e-17
95 1 141.4 114.316 -5.55112e-17
96 2 137.383 58.93 -5.55112e-17
97 2 128.174 196.557 -5.55112e-17
98 2 115.629 109.02 -5.55112e-17
99 1 8.96727 191.113 -5.55112e-17
100 2 83.7759 207.025 -5.55112e-17
101 1 3.17046 75.0879 -5.55112e-17
102 1 75.6664 184.172 -5.55112e-17
103 2 183.113 136.416 -5.55112e-17
104 2 57.4709 45.8599 -5.55112e-17
105 1 73.2594 154.529 -5.55112e-17
106 1 70.0904 148.528 -5.55112e-17
107 1 122.216 20.4959 -5.55112e-17
108 1 203.587 11.4316 -5.55112e-17
109 2 82.6919 10.9219 -5.55112e-17
110 2 140.823 6.80888 -5.55112e-17
111 1 119.947 27.42 -5.55112e-17
112 2 52.4933 124.74 -5.55112e-17
113 1 178.913 185.769 -5.55112e-17
114 1 144.689 19.3788 -5.55112e-17
115 2 175.263 125.054 -5.55112e-17
116 2 139.579 90.3082 -5.55112e-17
117 1 174.228 120.688 -5.55112e-17
118 1 33.3417 201.465 -5.55112e-17
119 2 198.082 1.1647 -5.55112e-17
120 2 199.552 165.316 -5.55112e-17
121 1 99.4753 5.25682 -5.55112e-17
122 2 25.7507 89.6759 -5.55112e-17
123 2 114.016 136.472 -5.55112e-17
124 1 54.6036 91.167 -5.55112e-17
125 1 103.813 59.0364 -5.55112e-17
126 2 209.013 55.2075 -5.55112e-17
127 2 120.696 98.922 -5.55112e-17
128 1 101.096 75.2284 -5.55112e-17
129 1 175.474 122.615 -5.55112e-17
130 2 180.109 7.35317 -5.55112e-17
131 1 196.252 158.953 -5.55112e-17
132 1 68.5481 3.85812 -5.55112e-17
133 1 11.4722 20.5222 -5.55112e-17
134 1 49.7298 84.4422 -5.55112e-17
135 2 188.43 114.907 -5.55112e-17
136 1 125.578 202.388 -5.55112e-17
137 1 177.135 80.5904 -5.55112e-17
138 2 46.2355 73.0949 -5.55112e-17
139 1 125.847 140.722 -5.55112e-17
140 1 68.9886 203.089 -5.55112e-17
141 1 191.837 99.6769 -5.55112e-17
142 1 142.005 36.2153 -5.55112e-17
143 1 163.836 88.0753 -5.55112e-17
144 1 185.072 93.3513 -5.55112e-17
145 2 73.8078 54.0894 -5.55112e-17
146 1 93.8779 98.2177 -5.55112e-17
147 2 86.6233 148.882 -5.55112e-17
148 1 57.3535 149.035 -5.55112e-17
149 1 86.4865 158.908 -5.55112e-17
150 2 65.866 3.11085 -5.55112e-17
151 1 77.3339 16.182 -5.55112e-17
152 1 204.89 134.201 -5.55112e-17
153 2 57.5318 82.7234 -5.55112e-17
154 1 137.413 73.3811 -5.55112e-17
155 2 201.875 84.5011 -5.55112e-17
156 2 118.225 167.555 -5.55112e-17
157 2 69.5358 62.0485 -5.55112e-17
158 2 188.085 119.437 -5.55112e-17
159 2 162.393 90.4317 -5.55112e-17
160 2 72.3526 149.734 -5.55112e-17
161 2 19.5804 88.7611 -5.55112e-17
162 1 29.9848 147.78 -5.55112e-17
163 1 85.118 29.092 -5.55112e-17
164 2 5.30938 9.44935 -5.55112e-17
165 1 144.029 218.667 -5.55112e-17
166 2 144.185 161.209 -5.55112e-17
167 1 0.83772 36.5417 -5.55112e-17
168 1 179.756 103.861 -5.55112e-17
169 2 126.27 38.0269 -5.55112e-17
170 1 23.2214 160.442 -5.55112e-17
171 1 183.055 113.027 -5.55112e-17
172 1 0.82656 102.013 -5.55112e-17
173 1 181.375 194.348 -5.55112e-17
174 2 218.668 215.293 -5.55112e-17
175 2 184.415 154.98 -5.55112e-17
176 1 199.159 16.9627 -5.55112e-17
177 2 171.218 97.492 -5.55112e-17
178 1 43.4925 163.04 -5.55112e-17
179 2 86.1348 77.9382 -5.55112e-17
180 1 166.084 32.9756 -5.55112e-17
181 1 124.754 108.971 -5.55112e-17
182 1 60.1686 98.0378 -5.55112e-17
183 1 162.74 104.187 -5.55112e-17
184 2 133.93 143.938 -5.55112e-17
185 2 135.234 186.774 -5.55112e-17
186 2 92.5712 200.089 -5.55112e-17
187 2 121.589 47.8297 -5.55112e-17
188 2 192.999 127.213 -5.55112e-17
189 1 34.3493 209.315 -5.55112e-17
190 1 151.778 148.44 -5.55112e-17
191 2 155.859 145.793 -5.55112e-17
192 2 56.9025 92.482 -5.55112e-17
193 1 164.946 61.7185 -5.55112e-17
194 1 2.1862 155.306 -5.55112e-17
195 2 107.391 10.0129 -5.55112e-17
196 1 194.877 140.337 -5.55112e-17
197 2 210.493 48.1079 -5.55112e-17
198 2 148.193 135.715 -5.55112e-17
199 2 120.682 62.6346 -5.55112e-17
200 2 216.325 9.01527 -5.55112e-17
201 2 65.3365 188.546 -5.55112e-17
202 1 5.90184 171.302 -5.55112e-17
203 1 126.485 101.171 -5.55112e-17
204 2 1.96047 136.111 -5.55112e-17
205 2 202.324 164.417 -5.55112e-17
206 2 165.618 178.822 -5.55112e-17
207 1 134.216 158.376 -5.55112e-17
208 2 164.189 176.064 -5.55112e-17
209 2 198.547 116.22 -5.55112e-17
210 1 156.628 77.6611 -5.55112e-17
211 1 88.5656 53.3322 -5.55112e-17
212 1 34.923 155.548 -5.55112e-17
213 1 142.651 59.7155 -5.55112e-17
214 2 186.247 97.8616 -5.55112e-17
215 1 169.826 42.8317 -5.55112e-17
216 1 18.0363 198.515 -5.55112e-17
217 1 122.156 200.238 -5.55112e-17
218 2 50.9994 118.995 -5.55112e-17
219 2 45.5439 41.9758 -5.55112e-17
220 1 85.138 126.488 -5.55112e-17
221 2 73.5723 115.743 -5.55112e-17
222 1 109.775 195.592 -5.55112e-17
223 1 117.233 192.437 -5.55112e-17
224 2 2.11265 139.371 -5.55112e-17
225 2 189.434 212.825 -5.55112e-17
226 1 131.957 46.1176 -5.55112e-17
227 2 211.998 60.7421 -5.55112e-17
228 2 51.698 2.63128 -5.55112e-17
229 1 205.936 183.136 -5.55112e-17
230 1 0.709451 71.9828 -5.55112e-17
231 2 55.9909 215.075 -5.55112e-17
232 1 44.1868 85.2797 -5.55112e-17
233 2 163.725 95.413 -5.55112e-17
234 1 203.646 209.624 -5.55112e-17
235 1 46.3826 14.9882 -5.55112e-17
236 2 183.615 200.861 -5.55112e-17
237 2 109.623 122.086 -5.55112e-17
238 2 214.636 86.2699 -5.55112e-17
239 1 36.9274 64.0683 -5.55112e-17
240 1 112.05 200.493 -5.55112e-17
241 2 88.3563 193.41 -5.55112e-17
242 1 43.5706 45.9083 -5.55112e-17
243 2 147.176 168.563 -5.55112e-17
244 2 218.208 122.564 -5.55112e-17
245 1 42.7247 50.8454 -5.55112e-17
246 2 27.7105 146.556 -5.55112e-17
247 2 191.825 30.0363 -5.55112e-17
248 1 7.45044 118.259 -5.55112e-17
249 1 71.2724 43.183 -5.55112e-17
250 1 150.905 51.7077 -5.55112e-17
251 2 49.5836 200.394 -5.55112e-17
252 1 44.0331 18.6587 -5.55112e-17
253 2 36.147 30.3511 -5.55112e-17
254 2 115.925 146.82 -5.55112e-17
255 2 64.1003 74.8721 -5.55112e-17
256 1 143.273 197.674 -5.55112e-17
257 2 0.146412 218.375 -5.55112e-17
258 1 76.1151 116.545 -5.55112e-17
259 2 121.194 140.996 -5.55112e-17
260 1 117.997 206.528 -5.55112e-17
261 2 151.98 154.133 -5.55112e-17
262 2 104.805 103.663 -5.55112e-17
263 2 204.018 42.592 -5.55112e-17
264 1 161.454 22.5524 -5.55112e-17
265 1 21.4187 77.1154 -5.55112e-17
266 1 7.94801 207.101 -5.55112e-17
267 2 194.851 25.9823 -5.55112e-17
268 1 205.703 114.98 -5.55112e-17
269 2 57.9129 10.6569 -5.55112e-17
270 2 83.3181 42.3334 -5.55112e-17
271 2 106.139 139.617 -5.55112e-17
272 1 209.871 146.16 -5.55112e-17
273 1 53.6034 34.7835 -5.55112e-17
274 1 102.354 3.00707 -5.55112e-17
275 1 73.6176 66.0926 -5.55112e-17
276 1 147.171 45.7065 -5.55112e-17
277 1 11.1997 109.701 -5.55112e-17
278 2 180.843 114.512 -5.55112e-17
279 2 215.447 151.706 -5.55112e-17
280 1 145.247 30.0653 -5.55112e-17
281 2 8.25636 204.496 -5.55112e-17
282 2 95.116 32.7886 -5.55112e-17
283 2 158.037 14.0173 -5.55112e-17
284 1 168.061 167.394 -5.55112e-17
285 1 93.3523 191.077 -5.55112e-17
286 2 92.6291 113.152 -5.55112e-17
287 2 185.28 126.845 -5.55112e-17
288 1 104.058 129.729 -5.55112e-17
289 2 83.4368 191.087 -5.55112e-17
290 1 119.668 12.54 -5.55112e-17
291 2 200.065 27.3712 -5.55112e-17
292 1 168.808 47.3154 -5.55112e-17
293 1 80.0975 6.63053 -5.55112e-17
294 1 0.105143 62.4462 -5.55112e-17
295 2 62.499 176.576 -5.55112e-17
296 1 128.339 115.613 -5.55112e-17
297 1 154.501 30.6226 -5.55112e-17
298 2 112.035 116.897 -5.55112e-17
299 1 54.9875 75.2447 -5.55112e-17
300 2 6.10284 83.0777 -5.55112e-17
301 2 102.314 213.944 -5.55112e-17
302 2 190.821 182.634 -5.55112e-17
303 1 168.468 215.745 -5.55112e-17
304 1 202.564 66.1332 -5.55112e-17
305 1 131.856 111.587 -5.55112e-17
306 2 100.061 7.77753 -5.55112e-17
307 2 4.56283 183.013 -5.55112e-17
308 2 121.446 163.074 -5.55112e-17
309 1 150.231 42.6707 -5.55112e-17
310 1 24.2652 40.2398 -5.55112e-17
311 1 25.3013 79.4587 -5.55112e-17
312 2 183.4 26.6714 -5.55112e-17
313 2 181.495 24.4303 -5.55112e-17
314 1 179.822 19.3298 -5.55112e-17
315 2 196.097 161.437 -5.55112e-17
316 1 211.459 184.2 -5.55112e-17
317 1 84.8646 143.185 -5.55112e-17
318 1 172.563 91.4555 -5.55112e-17
319 2 127.18 3.50375 -5.55112e-17
320 1 199.254 196.635 -5.55112e-17
321 1 75.8504 69.71 -5.55112e-17
322 1 207.991 131.141 -5.55112e-17
323 2 58.6881 100.165 -5.55112e-17
324 2 177.808 167.643 -5.55112e-17
325 2 177.968 36.6989 -5.55112e-17
326 1 162.559 143.669 -5.55112e-17
327 1 182.991 72.3125 -5.55112e-17
328 2 152.516 0.0567722 -5.55112e-17
329 2 154.135 77.2113 -5.55112e-17
330 2 66.366 118.615 -5.55112e-17
331 2 144.386 54.815 -5.55112e-17
332 2 146.032 47.9354 -5.55112e-17
333 2 89.6411 168.012 -5.55112e-17
334 2 60.2849 110.586 -5.55112e-17
335 1 33.9129 132.413 -5.55112e-17
336 2 86.2266 74.929 -5.55112e-17
337 2 75.2098 91.4281 -5.55112e-17
338 1 46.3254 208.758 -5.55112e-17
339 2 64.4851 46.154 -5.55112e-17
340 2 6.11081 31.9988 -5.55112e-17
341 2 17.2424 151.622 -5.55112e-17
342 2 180.684 132.069 -5.55112e-17
343 2 98.4968 96.6528 -5.55112e-17
344 1 97.9675 153.868 -5.55112e-17
345 2 14.9248 81.2833 -5.55112e-17
346 2 207.319 147.153 -5.55112e-17
347 1 99.2838 41.5524 -5.55112e-17
348 1 33.5372 211.629 -5.55112e-17
349 2 103.48 80.803 -5.55112e-17
350 2 76.4281 108.852 -5.55112e-17
351 1 56.4345 114.328 -5.55112e-17
352 1 197.676 89.5923 -5.55112e-17
353 2 137.753 179.422 -5.55112e-17
354 2 216.549 111.769 -5.55112e-17
355 1 1.95995 10.2471 -5.55112e-17
356 2 28.8501 83.8428 -5.55112e-17
357 1 99.3512 187.982 -5.55112e-17
358 1 148.958 158.373 -5.55112e-17
359 1 63.129 122.713 -5.55112e-17
360 1 189.744 185.446 -5.55112e-17
361 2 180.805 124.603 -5.55112e-17
362 2 100.219 31.8945 -5.55112e-17
363 1 206.298 68.212 -5.55112e-17
364 2 180.06 38.4136 -5.55112e-17
365 1 121.554 187.475 -5.55112e-17
366 1 127.736 31.1204 -5.55112e-17
367 1 205.894 117.484 -5.55112e-17
368 1 134.349 22.5506 -5.55112e-17
369 2 38.3243 97.1804 -5.55112e-17
370 1 168.406 157.544 -5.55112e-17
371 2 188.977 0.923885 -5.55112e-17
372 1 23.1785 24.2605 -5.55112e-17
373 2 185.315 70.7019 -5.55112e-17
374 2 131.114 195.608 -5.55112e-17
375 1 125.023 13.0034 -5.55112e-17
376 1 110.591 17.3603 -5.55112e-17
377 2 129.066 17.4984 -5.55112e-17
378 2 35.846 169.495 -5.55112e-17
379 2 184.088 163.224 -5.55112e-17
380 1 89.4481 7.24199 -5.55112e-17
381 1 153.875 174.627 -5.55112e-17
382 1 134.065 33.9412 -5.55112e-17
383 1 13.6902 78.6081 -5.55112e-17
384 2 14.8473 65.4516 -5.55112e-17
385 1 206.652 96.4708 -5.55112e-17
386 2 15.5353 90.3196 -5.55112e-17
387 1 139.361 96.7854 -5.55112e-17
388 1 33.1598 85.0877 -5.55112e-17
389 2 32.2441 37.4298 -5.55112e-17
390 1 68.2585 135.313 -5.55112e-17
391 1 152.693 134.15 -5.55112e-17
392 2 125.145 214.468 -5.55112e-17
393 2 85.2243 90.8007 -5.55112e-17
394 1 126.912 158.12 -5.55112e-17
395 1 185.928 31.8028 -5.55112e-17
396 2 153.402 50.149 -5.55112e-17
397 1 8.86678 167.277 -5.55112e-17
398 2 125.881 98.3893 -5.55112e-17
399 2 68.1729 12.7288 -5.55112e-17
400 2 167.412 131.074 -5.55112e-17
401 2 10.5141 27.0765 -5.55112e-17
402 1 20.2367 168.35 -5.55112e-17
403 1 204.847 2.69495 -5.55112e-17
404 2 55.6451 210.038 -5.55112e-17
405 1 148.911 33.9314 -5.55112e-17
406 2 80.8121 163.796 -5.55112e-17
407 1 143.293 144.267 -5.55112e-17
408 1 24.2462 139.548 -5.55112e-17
409 2 103.831 45.2847 -5.55112e-17
410 2 159.082 191.703 -5.55112e-17
411 1 9.10036 149.687 -5.55112e-17
412 1 155.816 36.0009 -5.55112e-17
413 1 158.07 84.2817 -5.55112e-17
414 2 159.677 69.4211 -5.55112e-17
415 1 54.754 97.5572 -5.55112e-17
416 1 154.035 111.658 -5.55112e-17
417 2 134.82 212.557 -5.55112e-17
418 2 150.161 86.0269 -5.55112e-17
419 2 35.9206 33.7129 -5.55112e-17
420 2 80.0904 46.1992 -5.55112e-17
421 1 116.401 118.706 -5.55112e-17
422 1 113.882 75.8627 -5.55112e-17
423 2 184.741 205.85 -5.55112e-17
424 2 38.2562 100.045 -5.55112e-17
425 2 93.4858 171.841 -5.55112e-17
426 1 105.643 89.0781 -5.55112e-17
427 2 28.713 203.55 -5.55112e-17
428 1 48.1487 101.655 -5.55112e-17
429 2 145.472 64.1261 -5.55112e-17
430 2 133.814 139.366 -5.55112e-17
431 1 166.309 216.574 -5.55112e-17
432 2 32.8704 68.1306 -5.55112e-17
433 1 154.026 8.01689 -5.55112e-17
434 1 197.124 137.262 -5.55112e-17
435 1 175.249 66.6736 -5.55112e-17
436 2 156.559 26.2059 -5.55112e-17
437 2 153.728 190.313 -5.55112e-17
438 2 63.5585 81.1629 -5.55112e-17
439 2 101.406 184.032 -5.55112e-17
440 2 48.7939 184.314 -5.55112e-17
441 1 106.628 85.0195 -5.55112e-17
442 1 80.0214 81.9041 -5.55112e-17
443 2 16.7068 148.684 -5.55112e-17
444 1 35.1177 53.1772 -5.55112e-17
445 1 60.1546 4.0842 -5.55112e-17
446 2 52.478 95.9523 -5.55112e-17
447 2 53.6032 155.437 -5.55112e-17
448 2 39.0926 116.8 -5.55112e-17
449 1 182.214 19.6292 -5.55112e-17
450 1 144.347 195.605 -5.55112e-17
451 1 26.591 213.233 -5.55112e-17
452 2 217.971 179.532 -5.55112e-17
453 1 101.514 46.3729 -5.55112e-17
454 1 42.0839 142.002 -5.55112e-17
455 2 100.663 164.917 -5.55112e-17
456 1 109.69 193.062 -5.55112e-17
457 2 59.9302 217.673 -5.55112e-17
458 2 60.0941 131.805 -5.55112e-17
459 2 152.408 214.471 -5.55112e-17
460 1 137.738 36.4424 -5.55112e-17
461 1 96.8051 94.0854 -5.55112e-17
462 1 192.3 79.3231 -5.55112e-17
463 2 52.7849 146.617 -5.55112e-17
464 2 152.355 207.529 -5.55112e-17
465 1 19.0232 183.199 -5.55112e-17
466 2 9.007 87.0707 -5.55112e-17
467 2 51.1403 144.222 -5.55112e-17
468 2 33.0101 17.4853 -5.55112e-17
469 2 134.497 46.3705 -5.55112e-17
470 2 31.3234 83.0201 -5.55112e-17
471 2 25.0754 157.767 -5.55112e-17
472 2 2.42671 112.629 -5.55112e-17
473 2 56.4896 174.807 -5.55112e-17
474 2 22.2795 169.63 -5.55112e-17
475 1 134.549 10.9934 -5.55112e-17
476 2 12.0929 97.0527 -5.55112e-17
477 1 181.301 201.624 -5.55112e-17
478 1 118.588 31.3677 -5.55112e-17
479 2 51.668 20.7678 -5.55112e-17
480 1 108.514 168.427 -5.55112e-17
481 1 116.086 48.9753 -5.55112e-17
482 2 152.778 63.8262 -5.55112e-17
483 1 164.965 134.698 -5.55112e-17
484 1 133.725 207.998 -5.55112e-17
485 2 50.3783 88.3392 -5.55112e-17
486 1 173.584 175.453 -5.55112e-17
487 1 44.6148 77.3652 -5.55112e-17
488 1 140.509 64.0489 -5.55112e-17
489 1 84.2642 186.516 -5.55112e-17
490 1 124.337 117.907 -5.55112e-17
491 1 210.214 43.893 -5.55112e-17
492 2 80.8787 32.6461 -5.55112e-17
493 1 209.189 98.751 -5.55112e-17
494 2 66.5253 80.0206 -5.55112e-17
495 1 170.225 24.764 -5.55112e-17
496 1 213.303 175.79 -5.55112e-17
497 1 173.33 105.82 -5.55112e-17
498 2 100.895 43.7481 -5.55112e-17
499 2 168.626 180.119 -5.55112e-17
500 2 190.624 55.1725 -5.55112e-17
501 2 188.659 99.5761 -5.55112e-17
502 2 49.8873 4.89159 -5.55112e-17
503 2 213.195 178.563 -5.55112e-17
504 2 16.6962 15.998 -5.55112e-17
505 2 187.083 164.806 -5.55112e-17
506 1 92.9755 205.829 -5.55112e-17
507 2 43.501 7.40681 -5.55112e-17
508 1 110.67 54.8653 -5.55112e-17
509 1 84.4597 54.5944 -5.55112e-17
510 1 42.0814 9.37307 -5.55112e-17
511 2 217.194 169.312 -5.55112e-17
512 1 207.147 7.29647 -5.55112e-17
513 2 174.901 69.8312 -5.55112e-17
514 2 114.678 116.834 -5.55112e-17
515 1 207.504 187.791 -5.55112e-17
516 2 63.3479 32.613 -5.55112e-17
517 1 171.076 184.237 -5.55112e-17
518 2 99.5258 77.2147 -5.55112e-17
519 1 83.6327 92.5636 -5.55112e-17
520 2 204.006 181.712 -5.55112e-17
521 2 154.969 41.0832 -5.55112e-17
522 1 188.03 183.01 -5.55112e-17
523 1 112.342 32.8716 -5.55112e-17
524 2 68.669 143.946 -5.55112e-17
525 2 131.38 134.543 -5.55112e-17
526 2 39.3322 54.4018 -5.55112e-17
527 1 166.081 171.33 -5.55112e-17
528 1 100.717 96.6458 -5.55112e-17
529 2 88.1679 200.266 -5.55112e-17
530 2 167.023 59.7479 -5.55112e-17
531 2 23.0674 204.919 -5.55112e-17
532 1 40.2411 12.1505 -5.55112e-17
533 2 124.628 167.759 -5.55112e-17
534 1 12.2042 9.90167 -5.55112e-17
535 1 81.5144 156.728 -5.55112e-17
536 2 21.3257 35.5595 -5.55112e-17
537 1 156.105 28.7173 -5.55112e-17
538 1 101.901 179.223 -5.55112e-17
539 2 191.991 214.598 -5.55112e-17
540 1 41.7592 176.296 -5.55112e-17
541 1 216.27 172.545 -5.55112e-17
542 1 187.636 204.351 -5.55112e-17
543 2 136.514 127.449 -5.55112e-17
544 1 105.576 46.9271 -5.55112e-17
545 1 91.617 99.0442 -5.55112e-17
546 2 22.2663 89.3211 -5.55112e-17
547 1 10.406 131.537 -5.55112e-17
548 1 212.293 82.3555 -5.55112e-17
549 2 133.849 129.294 -5.55112e-17
550 2 168.001 101.289 -5.55112e-17
551 2 3.61717 120.455 -5.55112e-17
552 1 186.612 58.9926 -5.55112e-17
553 2 107.074 14.8602 -5.55112e-17
554 2 194.456 193.448 -5.55112e-17
555 2 189.779 201.957 -5.55112e-17
556 1 75.3255 94.2601 -5.55112e-17
557 1 201.388 43.8951 -5.55112e-17
558 1 213.63 159.511 -5.55112e-17
559 2 123.036 165.316 -5.55112e-17
560 2 72.7196 57.1809 -5.55112e-17
561 2 207.012 33.6636 -5.55112e-17
562 2 77.5288 211.554 -5.55112e-17
563 1 86.4341 177.625 -5.55112e-17
564 2 139.542 134.692 -5.55112e-17
565 2 39.2182 131.874 -5.55112e-17
566 2 74.669 181.825 -5.55112e-17
567 1 43.9323 181.054 -5.55112e-17
568 1 147.218 186.547 -5.55112e-17
569 2 127.551 199.999 -5.55112e-17
570 2 75.6737 198.258 -5.55112e-17
571 2 121.344 127.885 -5.55112e-17
572 1 49.5545 157.876 -5.55112e-17
573 2 11.352 201.212 -5.55112e-17
574 2 215.249 120.521 -5.55112e-17
575 1 137.341 150.491 -5.55112e-17
576 1 30.4472 35.7569 -5.55112e-17
577 1 167.893 20.895 -5.55112e-17
578 1 180.646 137.623 -5.55112e-17
579 2 155.164 48.2073 -5.55112e-17
580 1 69.5538 212.858 -5.55112e-17
581 1 18.979 138.352 -5.55112e-17
582 2 46.7116 56.7403 -5.55112e-17
583 2 90.9608 214.232 -5.55112e-17
584 2 136.972 108.61 -5.55112e-17
585 1 10.1084 95.1146 -5.55112e-17
586 1 163.712 8.34207 -5.55112e-17
587 1 39.3594 175.227 -5.55112e-17
588 2 194.617 123.033 -5.55112e-17
589 1 14.7452 98.5438 -5.55112e-17
590 2 188.258 10.2656 -5.55112e-17
591 2 31.2938 182.163 -5.55112e-17
592 1 105.41 96.2711 -5.55112e-17
593 1 198.794 64.6027 -5.55112e-17
594 1 80.3465 144.551 -5.55112e-17
595 1 88.4992 184.797 -5.55112e-17
596 2 106.186 108.442 -5.55112e-17
597 2 5.39747 125.811 -5.55112e-17
598 2 155.733 198.824 -5.55112e-17
599 2 134.109 202.788 -5.55112e-17
600 2 13.3503 155.618 -5.55112e-17
601 1 123.672 198.264 -5.55112e-17
602 1 26.9817 184.674 -5.55112e-17
603 2 44.8997 64.1626 -5.55112e-17
604 1 72.3625 97.8626 -5.55112e-17
605 2 21.8526 149.858 -5.55112e-17
606 2 47.2998 75.834 -5.55112e-17
607 2 42.7913 196.579 -5.55112e-17
608 2 59.5027 72.0536 -5.55112e-17
609 1 155.444 109.765 -5.55112e-17
610 2 154.149 24.5958 -5.55112e-17
611 1 148.616 47.7116 -5.55112e-17
612 1 201.212 210.038 -5.55112e-17
613 2 113.612 95.3589 -5.55112e-17
614 1 95.1108 8.59514 -5.55112e-17
615 1 77.1354 11.0364 -5.55112e-17
616 2 52.6327 12.5323 -5.55112e-17
617 1 53.2281 109.516 -5.55112e-17
618 1 173.945 72.3311 -5.55112e-17
619 1 4.38894 59.6992 -5.55112e-17
620 2 137.029 11.6442 -5.55112e-17
621 2 52.1739 67.486 -5.55112e-17
622 2 74.0615 174.502 -5.55112e-17
623 2 200.977 114.982 -5.55112e-17
624 1 199.798 51.6447 -5.55112e-17
625 2 28.1845 200.199 -5.55112e-17
626 1 86.2491 138.907 -5.55112e-17
627 2 146.154 130.2 -5.55112e-17
628 1 37.4031 90.0501 -5.55112e-17
629 1 163.835 167.548 -5.55112e-17
630 2 185.607 47.8601 -5.55112e-17
631 2 87.5653 165.901 -5.55112e-17
632 2 28.5742 186.332 -5.55112e-17
633 2 120.154 15.2647 -5.55112e-17
634 2 36.6799 118.644 -5.55112e-17
635 2 175.102 117.795 -5.55112e-17
636 1 119.546 22.8063 -5.55112e-17
637 1 134.326 70.8064 -5.55112e-17
638 1 188.566 142.8 -5.55112e-17
639 2 57.5354 42.7445 -5.55112e-17
640 2 174.743 12.7605 -5.55112e-17
641 1 101.609 92.5404 -5.55112e-17
642 2 130.299 198.775 -5.55112e-17
643 1 124.056 157.595 -5.55112e-17
644 2 212.889 186.42 -5.55112e-17
645 2 115.709 204.29 -5.55112e-17
646 1 205.196 128.718 -5.55112e-17
647 2 123.406 52.9337 -5.55112e-17
648 2 211.666 98.3714 -5.55112e-17
649 1 139.555 126.617 -5.55112e-17
650 1 111.835 149.663 -5.55112e-17
651 1 147.556 183.492 -5.55112e-17
652 2 101.727 210.882 -5.55112e-17
653 2 86.4403 6.74923 -5.55112e-17
654 1 102.077 85.7317 -5.55112e-17
655 1 183.815 96.5782 -5.55112e-17
656 1 135.637 180.851 -5.55112e-17
657 1 103.005 188.138 -5.55112e-17
658 2 111.361 208.956 -5.55112e-17
659 2 63.0129 10.7165 -5.55112e-17
660 1 169.322 18.8133 -5.55112e-17
661 2 209.196 15.6882 -5.55112e-17
662 2 161.143 139.189 -5.55112e-17
663 1 77.6823 91.2784 -5.55112e-17
664 1 160.676 49.8681 -5.55112e-17
665 1 62.5612 218.538 -5.55112e-17
666 1 30.1388 176.009 -5.55112e-17
667 1 125.834 164.977 -5.55112e-17
668 1 42.6167 60.3286 -5.55112e-17
669 1 168.173 14.7151 -5.55112e-17
670 2 47.4421 61.9146 -5.55112e-17
671 1 77.9806 100.901 -5.55112e-17
672 1 142.011 204.132 -5.55112e-17
673 2 109.01 213.277 -5.55112e-17
674 2 137.366 100.859 -5.55112e-17
675 2 145.657 52.4197 -5.55112e-17
676 1 151.697 122.385 -5.55112e-17
677 2 84.8413 112.756 -5.55112e-17
678 1 80.8252 116.737 -5.55112e-17
679 1 194.492 196.072 -5.55112e-17
680 2 46.9308 123.888 -5.55112e-17
681 1 53.3601 24.9358 -5.55112e-17
682 1 204.483 207.075 -5.55112e-17
683 2 142.841 62.3765 -5.55112e-17
684 1 24.6491 117.191 -5.55112e-17
685 1 118.808 162.991 -5.55112e-17
686 1 14.4392 208.264 -5.55112e-17
687 1 2.33069 175.972 -5.55112e-17
688 1 207.03 133.34 -5.55112e-17
689 2 106.648 172.696 -5.55112e-17
690 1 22.833 2.73961 -5.55112e-17
691 2 109.866 26.2127 -5.55112e-17
692 2 116.147 96.6748 -5.55112e-17
693 1 186.052 188.085 -5.55112e-17
694 2 108.59 124.928 -5.55112e-17
695 2 213.018 21.0874 -5.55112e-17
696 2 85.0979 39.4642 -5.55112e-17
697 1 161.881 122.325 -5.55112e-17
698 2 29.665 158.79 -5.55112e-17
699 1 32.5733 20.2724 -5.55112e-17
700 2 115.803 121.271 -5.55112e-17
701 2 160.954 95.1555 -5.55112e-17
702 1 3.58874 153.791 -5.55112e-17
703 1 134.671 43.6221 -5.55112e-17
704 1 161.138 145.773 -5.55112e-17
705 1 118.138 170.092 -5.55112e-17
706 1 141.82 195.978 -5.55112e-17
707 1 116.428 6.41268 -5.55112e-17
708 2 179.173 14.8399 -5.55112e-17
709 1 200.116 106.785 -5.55112e-17
710 2 150.291 79.9796 -5.55112e-17
711 2 189.606 70.2938 -5.55112e-17
712 1 98.5662 183.167 -5.55112e-17
713 1 124.081 39.2621 -5.55112e-17
714 2 64.5155 179.313 -5.55112e-17
715 2 157.707 39.9044 -5.55112e-17
716 1 52.8551 80.944 -5.55112e-17
717 1 41.5715 95.1733 -5.55112e-17
718 2 0.926345 104.609 -5.55112e-17
719 1 41.3214 110.503 -5.55112e-17
720 2 29.8411 120.935 -5.55112e-17
721 2 65.5702 158.931 -5.55112e-17
722 2 53.3032 114.528 -5.55112e-17
723 2 181.008 87.7831 -5.55112e-17
724 2 100.135 151.813 -5.55112e-17
725 2 100.075 65.0768 -5.55112e-17
726 2 8.49455 61.3333 -5.55112e-17
727 2 122.066 44.9648 -5.55112e-17
728 1 190.851 152.494 -5.55112e-17
729 2 211.472 53.8151 -5.55112e-17
730 2 55.7338 134.296 -5.55112e-17
731 1 194.111 207.597 -5.55112e-17
732 2 182.347 120.043 -5.55112e-17
733 2 119.353 194.415 -5.55112e-17
734 2 72.8309 18.5211 -5.55112e-17
735 2 191.309 65.2248 -5.55112e-17
736 1 176.406 139.286 -5.55112e-17
737 2 199.129 58.7977 -5.55112e-17
738 2 185.093 39.8565 -5.55112e-17
739 2 165.97 139.847 -5.55112e-17
740 2 39.3415 105.155 -5.55112e-17
741 2 98.9945 159.26 -5.55112e-17
742 1 117.162 98.8271 -5.55112e-17
743 2 183.447 115.719 -5.55112e-17
744 1 13.4943 57.1041 -5.55112e-17
745 2 91.216 192.492 -5.55112e-17
746 1 139.93 44.0943 -5.55112e-17
747 1 113.188 184.387 -5.55112e-17
748 2 170.967 171.601 -5.55112e-17
749 1 113.402 87.2612 -5.55112e-17
750 1 84.1062 13.3659 -5.55112e-17
751 1 161.898 9.99871 -5.55112e-17
752 2 133.157 214.484 -5.55112e-17
753 1 164.784 82.0395 -5.55112e-17
754 2 80.1864 190.65 -5.55112e-17
755 1 79.08 168.937 -5.55112e-17
756 2 139.608 214.655 -5.55112e-17
757 1 14.9359 185.62 -5.55112e-17
758 2 103.24 139.831 -5.55112e-17
759 1 21.8707 98.8801 -5.55112e-17
760 1 92.4499 197.429 -5.55112e-17
761 2 39.9764 215.346 -5.55112e-17
762 1 10.5723 197.757 -5.55112e-17
763 2 139.614 169.935 -5.55112e-17
764 2 112.275 99.7737 -5.55112e-17
765 1 162.76 92.8791 -5.55112e-17
766 2 204.554 64.1413 -5.55112e-17
767 2 179.465 192.406 -5.55112e-17
768 2 147.478 109.738 -5.55112e-17
769 2 14.9768 75.8115 -5.55112e-17
770 1 155.5 93.855 -5.55112e-17
771 1 12.3811 80.4737 -5.55112e-17
772 1 113.446 60.414 -5.55112e-17
773 2 195.547 183.947 -5.55112e-17
774 1 143.519 113.54 -5.55112e-17
775 1 109.263 105.571 -5.55112e-17
776 2 117.515 155.742 -5.55112e-17
777 2 155.572 3.30305 -5.55112e-17
778 1 13.2986 203.456 -5.55112e-17
779 1 148.542 143.288 -5.55112e-17
780 2 58.3675 209.565 -5.55112e-17
781 1 78.7966 18.2563 -5.55112e-17
782 2 144.045 208.659 -5.55112e-17
783 1 59.9082 202.366 -5.55112e-17
784 2 213.562 142.935 -5.55112e-17
785 1 122.329 210.138 -5.55112e-17
786 1 148.3 175.132 -5.55112e-17
787 2 212.707 134.333 -5.55112e-17
788 2 133.957 8.22044 -5.55112e-17
789 2 180.287 146.596 -5.55112e-17
790 2 109.016 107.891 -5.55112e-17
791 2 188.464 138.425 -5.55112e-17
792 1 211.343 211.163 -5.55112e-17
793 1 27.128 51.1537 -5.55112e-17
794 2 205.03 176.304 -5.55112e-17
795 2 40.1639 125.457 -5.55112e-17
796 1 197.593 56.5667 -5.55112e-17
797 1 49.8413 69.1845 -5.55112e-17
798 1 112.039 191.571 -5.55112e-17
799 2 30.3305 24.8717 -5.55112e-17
800 1 61.6781 54.2604 -5.55112e-17
801 2 175.177 157.392 -5.55112e-17
802 1 52.4448 104.51 -5.55112e-17
803 1 41.1652 166.95 -5.55112e-17
804 1 146.984 215.104 -5.55112e-17
805 2 92.5301 80.0416 -5.55112e-17
806 2 200.777 73.5497 -5.55112e-17
807 2 78.9883 98.3994 -5.55112e-17
808 2 205.088 73.712 -5.55112e-17
809 1 64.4838 206.65 -5.55112e-17
810 2 129.157 174.735 -5.55112e-17
811 2 35.0525 145.747 -5.55112e-17
812 1 150.423 94.2754 -5.55112e-17
813 1 120.199 76.7796 -5.55112e-17
814 1 83.3244 2.8876 -5.55112e-17
815 1 25.3769 160.392 -5.55112e-17
816 1 6.01539 203.866 -5.55112e-17
817 2 86.0456 156.312 -5.55112e-17
818 2 65.9073 91.0273 -5.55112e-17
819 2 29.9466 3.00623 -5.55112e-17
820 1 140.03 37.3533 -5.55112e-17
821 1 1.75267 20.5814 -5.55112e-17
822 2 114.234 41.1582 -5.55112e-17
823 1 210.663 205.215 -5.55112e-17
824 1 12.2558 153.164 -5.55112e-17
825 1 58.4482 35.2976 -5.55112e-17
826 2 8.40373 47.2759 -5.55112e-17
827 2 101.698 104.485 -5.55112e-17
828 1 121.925 192.602 -5.55112e-17
829 2 168.021 97.9587 -5.55112e-17
830 1 23.3019 173.853 -5.55112e-17
831 2 200.191 212.675 -5.55112e-17
832 2 35.0786 129.944 -5.55112e-17
833 2 180.924 167.094 -5.55112e-17
834 1 217.661 6.50337 -5.55112e-17
835 1 122.883 89.1031 -5.55112e-17
836 1 182.785 153.022 -5.55112e-17
837 2 116.95 11.4981 -5.55112e-17
838 2 27.2557 128.136 -5.55112e-17
839 1 130.256 169.193 -5.55112e-17
840 2 213.584 100.403 -5.55112e-17
841 2 130.433 166.938 -5.55112e-17
842 1 51.4667 172.417 -5.55112e-17
843 1 131.746 16.0987 -5.55112e-17
844 2 23.039 209.48 -5.55112e-17
845 1 0.360466 50.9531 -5.55112e-17
846 2 64.8367 98.5263 -5.55112e-17
847 1 50.5281 131.125 -5.55112e-17
848 2 128.711 193.5 -5.55112e-17
849 1 122.72 133.848 -5.55112e-17
850 2 172.336 57.4976 -5.55112e-17
851 2 128.803 147.725 -5.55112e-17
852 1 118.663 212.082 -5.55112e-17
853 1 157.314 122.54 -5.55112e-17
854 2 16.0533 142.346 -5.55112e-17
855 2 185.469 85.2466 -5.55112e-17
856 1 47.7055 48.7932 -5.55112e-17