ITEM: TIMESTEP
0
ITEM: NUMBER OF ATOMS
7200
ITEM: BOX BOUNDS xy xz yz pp pp pp
0.0000000000000000e+00 2.1900000000000000e+02 0.0000000000000000e+00
0.0000000000000000e+00 2.1900000000000000e+02 0.0000000000000000e+00
-3.6499999999999999e-01 3.6499999999999999e-01 0.0000000000000000e+00
ITEM: ATOMS id type x y z
1 1 157.577 97.4808 -5.55112e-17
2 2 100.094 28.2445 -5.55112e-17
3 2 52.0575 73.1053 -5.55112e-17
4 1 166.275 112.381 -5.55112e-17
5 1 149.705 49.7787 -5.55112e-17
6 1 167.004 19.8197 -5.55112e-17
7 2 44.4705 149.53 -5.55112e-17
8 2 126.213 52.8678 -5.55112e-17
9 1 72.584 187.541 -5.55112e-17
10 2 0.264118 53.8753 -5.55112e-17
11 2 108.139 212.115 -5.55112e-17
12 1 177.788 154.587 -5.55112e-17
13 2 133.899 78.7912 -5.55112e-17
14 1 197.743 173.698 -5.55112e-17
15 2 166.433 216.188 -5.55112e-17
16 2 116.426 218.407 -5.55112e-17
17 1 109.973 36.4183 -5.55112e-17
18 2 153.426 85.3785 -5.55112e-17
19 1 120.173 61.9552 -5.55112e-17
20 1 86.7318 31.9103 -5.55112e-17
21 1 84.1862 31.8445 -5.55112e-17
22 2 103.425 34.4402 -5.55112e-17
23 2 193.274 80.2031 -5.55112e-17
24 2 191.856 103.984 -5.55112e-17
25 2 164.244 110.916 -5.55112e-17
26 2 131.361 57.561 -5.55112e-17
27 1 186.141 195.33 -5.55112e-17
28 2 167.274 175.36 -5.55112e-17
29 2 1.90615 205.744 -5.55112e-17
30 2 68.8531 134.968 -5.55112e-17
31 2 164.85 173.961 -5.55112e-17
32 1 104.036 174.1 -5.55112e-17
33 2 24.1408 115.984 -5.55112e-17
34 2 7.17427 9.82911 -5.55112e-17
35 2 29.4532 179.212 -5.55112e-17
36 1 68.2203 13.9884 -5.55112e-17
37 1 139.086 155.079 -5.55112e-17
38 2 166.023 31.0564 -5.55112e-17
39 1 19.4659 115.476 -5.55112e-17
40 2 139.599 182.017 -5.55112e-17
41 1 156.193 75.3775 -5.55112e-17
42 1 162.222 177.843 -5.55112e-17
43 1 170.5 87.7194 -5.55112e-17
44 1 83.6637 122.732 -5.55112e-17
45 2 140.109 176.828 -5.55112e-17
46 1 93.2775 82.5345 -5.55112e-17
47 2 57.5882 193.146 -5.55112e-17
48 2 21.1574 4.41746 -5.55112e-17
49 1 67.8121 77.0301 -5.55112e-17
50 2 14.102 118.59 -5.55112e-17
51 1 214.691 105.301 -5.55112e-17
52 1 153.763 188.947 -5.55112e-17
53 2 14.111 62.4141 -5.55112e-17
54 1 46.8464 148.635 -5.55112e-17
55 2 184.851 106.97 -5.55112e-17
56 1 152.599 66.3374 -5.55112e-17
57 2 205.263 153.758 -5.55112e-17
58 1 211.129 29.0484 -5.55112e-17
59 1 171.694 49.9359 -5.55112e-17
60 2 141.268 145.966 -5.55112e-17
61 1 137.213 172.303 -5.55112e-17
62 1 65.3776 54.9174 -5.55112e-17
63 2 173.181 213.845 -5.55112e-17
64 1 100.133 154.942 -5.55112e-17
65 2 160.884 6.43307 -5.55112e-17
66 2 92.3027 163.7 -5.55112e-17
67 2 161.656 87.3917 -5.55112e-17
68 1 166.251 151.597 -5.55112e-17
69 2 166.946 195.547 -5.55112e-17
70 1 201.741 158.246 -5.55112e-17
71 1 160.57 191.168 -5.55112e-17
72 2 99.7829 217.299 -5.55112e-17
73 2 140.397 103.994 -5.55112e-17
74 2 93.0868 66.4768 -5.55112e-17
75 1 87.9483 85.4844 -5.55112e-17
76 2 32.1463 217.967 -5.55112e-17
77 2 132.768 83.4432 -5.55112e-17
78 1 215.109 153.316 -5.55112e-17
79 2 140.646 96.2955 -5.55112e-17
80 1 3.57799 46.3398 -5.55112e-17
81 1 200.655 125.743 -5.55112e-17
82 1 170.795 26.5452 -5.55112e-17
83 1 208.667 102.546 -5.55112e-17
84 2 45.5145 114.808 -5.55112e-17
85 2 190.141 209.646 -5.55112e-17
86 2 171.784 138.357 -5.55112e-17
87 2 201.703 216.16 -5.55112e-17
88 1 214.094 71.1657 -5.55112e-17
89 2 94.1881 3.62392 -5.55112e-17
90 2 49.3703 161.666 -5.55112e-17
91 2 137.014 162.365 -5.55112e-17
92 1 147.885 76.9064 -5.55112e-17
93 2 36.9118 50.3371 -5.55112e-17
94 2 141.606 111.831 -5.55112e-17
95 1 26.5637 37.4313 -5.55112e-17
96 2 39.1086 205.034 -5.55112e-17
97 2 118.303 109.543 -5.55112e-17
98 2 3.92867 211.389 -5.55112e-17
99 1 121.656 73.4472 -5.55112e-17
100 2 62.4451 22.8076 -5.55112e-17
101 1 145.332 211.249 -5.55112e-17
102 1 90.1801 119.622 -5.55112e-17
103 2 217.391 215.156 -5.55112e-17
104 2 137.468 25.3188 -5.55112e-17
105 1 139.322 157.855 -5.55112e-17
106 1 1.35214 170.96 -5.55112e-17
107 1 117.706 40.9534 -5.55112e-17
108 1 175.335 170.78 -5.55112e-17
109 2 196.1 144.778 -5.55112e-17
110 2 15.8567 79.219 -5.55112e-17
111 1 153.937 18.6341 -5.55112e-17
112 2 151.147 58.5079 -5.55112e-17
113 1 120.232 14.7542 -5.55112e-17
114 1 62.6163 72.2898 -5.55112e-17
115 2 35.2399 217.721 -5.55112e-17
116 2 112.28 52.3667 -5.55112e-17
117 1 169.066 40.222 -5.55112e-17
118 1 65.5842 155.453 -5.55112e-17
119 2 120.504 107.045 -5.55112e-17
120 2 206.627 50.314 -5.55112e-17
121 1 8.69192 100.991 -5.55112e-17
122 2 174.572 176 -5.55112e-17
123 2 137.926 82.8066 -5.55112e-17
124 1 98.1362 87.7885 -5.55112e-17
125 1 12.6875 138.309 -5.55112e-17
126 2 16.5726 196.502 -5.55112e-17
127 2 108.796 75.565 -5.55112e-17
128 1 120.893 101.108 -5.55112e-17
129 1 1.01159 46.3997 -5.55112e-17
130 2 54.0371 139.787 -5.55112e-17
131 1 164.684 123.242 -5.55112e-17
132 1 40.4835 2.85837 -5.55112e-17
133 1 32.0002 88.1394 -5.55112e-17
134 1 34.4003 129.823 -5.55112e-17
135 2 119.011 154.361 -5.55112e-17
136 1 143.143 44.8421 -5.55112e-17
137 1 210.499 209.814 -5.55112e-17
138 2 174.16 84.5827 -5.55112e-17
139 1 67.4046 203.945 -5.55112e-17
140 1 112.612 167.09 -5.55112e-17
141 1 169.97 60.1741 -5.55112e-17
142 1 203.407 86.1052 -5.55112e-17
143 1 91.0145 11.6899 -5.55112e-17
144 1 201.408 108.376 -5.55112e-17
145 2 210.345 114.505 -5.55112e-17
146 1 165.903 42.9458 -5.55112e-17
147 2 59.9901 96.3736 -5.55112e-17
148 1 151.824 163.141 -5.55112e-17
149 1 156.796 197.158 -5.55112e-17
150 2 154.365 186.244 -5.55112e-17
151 1 5.11753 23.2826 -5.55112e-17
152 1 11.5947 61.8453 -5.55112e-17
153 2 140.989 50.0549 -5.55112e-17
154 1 47.4998 156.032 -5.55112e-17
155 2 14.9257 124.617 -5.55112e-17
156 2 146.674 163.718 -5.55112e-17
157 2 198.843 148.772 -5.55112e-17
158 2 215.354 178.693 -5.55112e-17
159 2 131.183 193.174 -5.55112e-17
160 2 46.743 168.685 -5.55112e-17
161 2 31.6088 212.471 -5.55112e-17
162 1 208.281 193.825 -5.55112e-17
163 1 53.8716 175.288 -5.55112e-17
164 2 28.5558 140.976 -5.55112e-17
165 1 183.166 38.4 -5.55112e-17
166 2 136.795 109.442 -5.55112e-17
167 1 123.265 27.2046 -5.55112e-17
168 1 57.9705 185.992 -5.55112e-17
169 2 115.428 161.938 -5.55112e-17
170 1 54.1668 149.989 -5.55112e-17
171 1 30.3421 139.184 -5.55112e-17
172 1 23.0591 121.101 -5.55112e-17
173 1 176.751 62.1319 -5.55112e-17
174 2 12.1637 98.0136 -5.55112e-17
175 2 28.666 164.819 -5.55112e-17
176 1 202.721 9.82196 -5.55112e-17
177 2 129.942 11.011 -5.55112e-17
178 1 45.905 106.696 -5.55112e-17
179 2 75.063 53.9216 -5.55112e-17
180 1 85.7052 19.4833 -5.55112e-17
181 1 192.091 189.094 -5.55112e-17
182 1 172.039 176.071 -5.55112e-17
183 1 96.625 109.473 -5.55112e-17
184 2 218.471 23.6017 -5.55112e-17
185 2 78.6186 64.2716 -5.55112e-17
186 2 125.469 198.054 -5.55112e-17
187 2 27.0348 152.98 -5.55112e-17
188 2 118.615 21.6311 -5.55112e-17
189 1 212.65 198.884 -5.55112e-17
190 1 155.513 157.03 -5.55112e-17
191 2 191.27 31.165 -5.55112e-17
192 2 20.9125 148.359 -5.55112e-17
193 1 208 97.8196 -5.55112e-17
194 1 140.183 203.431 -5.55112e-17
195 2 18.6385 52.2613 -5.55112e-17
196 1 215.401 195.228 -5.55112e-17
197 2 14.1381 127.819 -5.55112e-17
198 2 172.032 167.306 -5.55112e-17
199 2 126.916 183.185 -5.55112e-17
200 2 157.329 152.778 -5.55112e-17
201 2 129.491 30.6314 -5.55112e-17
202 1 84.0544 149.186 -5.55112e-17
203 1 138.314 34.8883 -5.55112e-17
204 2 137.434 187.319 -5.55112e-17
205 2 95.6205 199.482 -5.55112e-17
206 2 184.54 40.6213 -5.55112e-17
207 1 29.3685 107.509 -5.55112e-17
208 2 2.71316 197.979 -5.55112e-17
209 2 134.075 156.175 -5.55112e-17
210 1 103.669 70.3224 -5.55112e-17
211 1 102.591 115.476 -5.55112e-17
212 1 190.196 87.2471 -5.55112e-17
213 1 158.784 158.119 -5.55112e-17
214 2 121.234 168.078 -5.55112e-17
215 1 47.7463 88.7706 -5.55112e-17
216 1 202.092 54.144 -5.55112e-17
217 1 171.765 89.3237 -5.55112e-17
218 2 154.562 46.9701 -5.55112e-17
219 2 107.906 140.953 -5.55112e-17
220 1 109.788 150.408 -5.55112e-17
221 2 121.355 129.731 -5.55112e-17
222 1 21.1559 134.006 -5.55112e-17
223 1 52.7118 117.928 -5.55112e-17
224 2 115.65 108.942 -5.55112e-17
225 2 133.605 132.426 -5.55112e-17
226 1 160.814 82.5263 -5.55112e-17
227 2 150.365 149.51 -5.55112e-17
228 2 95.4073 26.4436 -5.55112e-17
229 1 91.6353 179.775 -5.55112e-17
230 1 198.22 31.0558 -5.55112e-17
231 2 216.435 54.7581 -5.55112e-17
232 1 100.494 142.471 -5.55112e-17
233 2 216.744 69.7494 -5.55112e-17
234 1 199.726 67.8404 -5.55112e-17
235 1 199.957 183.922 -5.55112e-17
236 2 95.6709 141.85 -5.55112e-17
237 2 74.8444 81.1514 -5.55112e-17
238 2 169.666 169.683 -5.55112e-17
239 1 152.312 48.5444 -5.55112e-17
240 1 160.416 64.014 -5.55112e-17
241 2 128.926 217.003 -5.55112e-17
242 1 85.0622 91.6913 -5.55112e-17
243 2 24.5148 186.027 -5.55112e-17
244 2 55.1021 163.568 -5.55112e-17
245 1 13.0194 39.687 -5.55112e-17
246 2 131.828 54.6021 -5.55112e-17
247 2 122.045 63.9894 -5.55112e-17
248 1 196.243 64.3547 -5.55112e-17
249 1 22.9217 168.901 -5.55112e-17
250 1 109.847 47.775 -5.55112e-17
251 2 114.97 25.4331 -5.55112e-17
252 1 203.068 61.9104 -5.55112e-17
253 2 56.5312 90.2942 -5.55112e-17
254 2 64.9091 208.812 -5.55112e-17
255 2 31.1745 68.9169 -5.55112e-17
256 1 35.1592 174.018 -5.55112e-17
257 2 186.46 124.697 -5.55112e-17
258 1 197.136 44.2296 -5.55112e-17
259 2 74.0108 189.548 -5.55112e-17
260 1 144.652 46.5267 -5.55112e-17
261 2 7.93626 156.243 -5.55112e-17
262 2 39.7268 127.728 -5.55112e-17
263 2 34.5683 201.269 -5.55112e-17
264 1 158.482 180.206 -5.55112e-17
265 1 27.8077 32.923 -5.55112e-17
266 1 190.389 11.0726 -5.55112e-17
267 2 184.677 134.646 -5.55112e-17
268 1 102.048 3.07921 -5.55112e-17
269 2 197.569 184.414 -5.55112e-17
270 2 118.764 201.139 -5.55112e-17
271 2 119.18 31.2042 -5.55112e-17
272 1 53.4521 127.432 -5.55112e-17
273 1 86.9966 184.101 -5.55112e-17
274 1 1.13301 25.6222 -5.55112e-17
275 1 64.9206 164.852 -5.55112e-17
276 1 89.2696 159.879 -5.55112e-17
277 1 195.058 56.7104 -5.55112e-17
278 2 94.0224 116.846 -5.55112e-17
279 2 155.636 134.215 -5.55112e-17
280 1 49.1211 60.1681 -5.55112e-17
281 2 102.793 8.07654 -5.55112e-17
282 2 68.0079 87.0308 -5.55112e-17
283 2 98.8554 18.1562 -5.55112e-17
284 1 51.9249 138.124 -5.55112e-17
285 1 215.058 157.382 -5.55112e-17
286 2 107.66 27.9717 -5.55112e-17
287 2 174.689 133.314 -5.55112e-17
288 1 21.1752 189.295 -5.55112e-17
289 2 184.834 154.292 -5.55112e-17
290 1 118.306 141.266 -5.55112e-17
291 2 38.6352 188.751 -5.55112e-17
292 1 93.3101 136.516 -5.55112e-17
293 1 212.922 129.791 -5.55112e-17
294 1 134.545 160.669 -5.55112e-17
295 2 80.1582 74.7748 -5.55112e-17
296 1 71.9892 33.7469 -5.55112e-17
297 1 15.1671 103.956 -5.55112e-17
298 2 198.598 109.271 -5.55112e-17
299 1 196.883 147.32 -5.55112e-17
300 2 194.811 15.6582 -5.55112e-17
301 2 166.501 40.3161 -5.55112e-17
302 2 80.6689 122.855 -5.55112e-17
303 1 79.9886 179.825 -5.55112e-17
304 1 145.497 203.004 -5.55112e-17
305 1 66.2409 49.4732 -5.55112e-17
306 2 138.713 61.148 -5.55112e-17
307 2 40.9887 202.901 -5.55112e-17
308 2 127.845 77.6099 -5.55112e-17
309 1 116.787 174.707 -5.55112e-17
310 1 41.8339 108.681 -5.55112e-17
311 1 164.355 7.8904 -5.55112e-17
312 2 4.21324 143.838 -5.55112e-17
313 2 143.318 143.708 -5.55112e-17
314 1 123.285 169.735 -5.55112e-17
315 2 65.0943 211.97 -5.55112e-17
316 1 198.76 146.091 -5.55112e-17
317 1 63.4623 69.6026 -5.55112e-17
318 1 49.0295 81.5336 -5.55112e-17
319 2 59.2294 89.9589 -5.55112e-17
320 1 78.3748 136.283 -5.55112e-17
321 1 124.857 93.1646 -5.55112e-17
322 1 21.669 106.147 -5.55112e-17
323 2 171.276 72.3786 -5.55112e-17
324 2 139.262 218.472 -5.55112e-17
325 2 1.35344 128.895 -5.55112e-17
326 1 200.013 151.037 -5.55112e-17
327 1 207.72 199.171 -5.55112e-17
328 2 70.7581 106.055 -5.55112e-17
329 2 167.988 52.9489 -5.55112e-17
330 2 98.9367 33.4128 -5.55112e-17
331 2 118.275 66.9646 -5.55112e-17
332 2 89.4361 97.09 -5.55112e-17
333 2 44.369 32.1206 -5.55112e-17
334 2 19.0491 197.862 -5.55112e-17
335 1 186.57 199.527 -5.55112e-17
336 2 210.938 139.224 -5.55112e-17
337 2 1.29342 75.9612 -5.55112e-17
338 1 22.9775 195.476 -5.55112e-17
339 2 83.1456 0.126451 -5.55112e-17
340 2 124.873 2.41707 -5.55112e-17
341 2 69.8232 74.9201 -5.55112e-17
342 2 174.702 16.7008 -5.55112e-17
343 2 132.533 23.242 -5.55112e-17
344 1 67.2781 40.5035 -5.55112e-17
345 2 70.1173 0.260865 -5.55112e-17
346 2 26.6315 136.097 -5.55112e-17
347 1 18.5474 149.861 -5.55112e-17
348 1 206.606 185.679 -5.55112e-17
349 2 175.502 188.549 -5.55112e-17
350 2 26.3617 76.4386 -5.55112e-17
351 1 191.762 44.5409 -5.55112e-17
352 1 11.2559 128.008 -5.55112e-17
353 2 134.741 93.256 -5.55112e-17
354 2 214.646 121.002 -5.55112e-17
355 1 99.3163 132.818 -5.55112e-17
356 2 174.124 65.8279 -5.55112e-17
357 1 86.2641 132.101 -5.55112e-17
358 1 4.28347 133.692 -5.55112e-17
359 1 132.204 72.3167 -5.55112e-17
360 1 100.227 150.602 -5.55112e-17
361 2 178.371 54.0002 -5.55112e-17
362 2 10.3954 59.4918 -5.55112e-17
363 1 168.369 213.943 -5.55112e-17
364 2 120.669 26.3121 -5.55112e-17
365 1 78.9839 77.0033 -5.55112e-17
366 1 211.26 107.908 -5.55112e-17
367 1 61.3869 27.376 -5.55112e-17
368 1 112.649 161.292 -5.55112e-17
369 2 27.8255 95.1173 -5.55112e-17
370 1 215.205 133.632 -5.55112e-17
371 2 42.3344 26.6857 -5.55112e-17
372 1 129.852 159.903 -5.55112e-17
373 2 181.11 180.035 -5.55112e-17
374 2 61.6873 199.835 -5.55112e-17
375 1 161.563 186.143 -5.55112e-17
376 1 212.215 116.223 -5.55112e-17
377 2 54.6603 29.9646 -5.55112e-17
378 2 210.39 200.034 -5.55112e-17
379 2 194.347 69.8337 -5.55112e-17
380 1 191.749 75.2147 -5.55112e-17
381 1 46.889 203.053 -5.55112e-17
382 1 1.7726 110.619 -5.55112e-17
383 1 122.264 119.689 -5.55112e-17
384 2 170.038 121.801 -5.55112e-17
385 1 78.9651 151.75 -5.55112e-17
386 2 104.228 200.464 -5.55112e-17
387 1 87.8924 75.6167 -5.55112e-17
388 1 172.947 183.745 -5.55112e-17
389 2 120.385 114.983 -5.55112e-17
390 1 80.777 93.3957 -5.55112e-17
391 1 100.986 96.0362 -5.55112e-17
392 2 124.019 172.435 -5.55112e-17
393 2 130.16 49.0594 -5.55112e-17
394 1 185.496 56.0992 -5.55112e-17
395 1 143.978 163.621 -5.55112e-17
396 2 2.2479 5.76987 -5.55112e-17
397 1 125.725 191 -5.55112e-17
398 2 208.577 196.613 -5.55112e-17
399 2 55.0029 73.2456 -5.55112e-17
400 2 191.505 186.026 -5.55112e-17
401 2 205.195 24.1133 -5.55112e-17
402 1 35.1285 37.6712 -5.55112e-17
403 1 5.25622 165.278 -5.55112e-17
404 2 60.5131 116.309 -5.55112e-17
405 1 8.23449 136.712 -5.55112e-17
406 2 206.784 203.956 -5.55112e-17
407 1 149.662 217.308 -5.55112e-17
408 1 36.9626 206.352 -5.55112e-17
409 2 40.3842 62.3293 -5.55112e-17
410 2 15.5104 130.392 -5.55112e-17
411 1 42.3132 121.43 -5.55112e-17
412 1 157.354 116.596 -5.55112e-17
413 1 15.1929 192.303 -5.55112e-17
414 2 37.5192 76.1926 -5.55112e-17
415 1 73.3715 68.9107 -5.55112e-17
416 1 15.2299 16.2658 -5.55112e-17
417 2 88.4115 49.3136 -5.55112e-17
418 2 104.957 144.864 -5.55112e-17
419 2 117.486 46.3779 -5.55112e-17
420 2 58.8692 74.6608 -5.55112e-17
421 1 183.792 68.3717 -5.55112e-17
422 1 27.3704 122.07 -5.55112e-17
423 2 13.9466 47.1719 -5.55112e-17
424 2 19.4528 191.588 -5.55112e-17
425 2 162.184 203.562 -5.55112e-17
426 1 52.5956 209.096 -5.55112e-17
427 2 155.218 11.016 -5.55112e-17
428 1 114.944 106.398 -5.55112e-17
429 2 19.2684 107.742 -5.55112e-17
430 2 108.029 99.4771 -5.55112e-17
431 1 176.027 131.343 -5.55112e-17
432 2 71.2023 67.1184 -5.55112e-17
433 1 160.427 214.987 -5.55112e-17
434 1 56.607 75.3684 -5.55112e-17
435 1 130.647 113.719 -5.55112e-17
436 2 159.037 186.756 -5.55112e-17
437 2 209.765 10.8219 -5.55112e-17
438 2 208.453 187.474 -5.55112e-17
439 2 135.904 51.0234 -5.55112e-17
440 2 45.477 93.247 -5.55112e-17
441 1 26.9381 129.547 -5.55112e-17
442 1 109.192 83.655 -5.55112e-17
443 2 143.681 184.392 -5.55112e-17
444 1 164.486 202.692 -5.55112e-17
445 1 125.736 158.235 -5.55112e-17
446 2 64.8068 172.442 -5.55112e-17
447 2 34.2659 107.689 -5.55112e-17
448 2 20.0905 138.54 -5.55112e-17
449 1 62.9352 215.892 -5.55112e-17
450 1 144.138 22.7163 -5.55112e-17
451 1 181.187 195.2 -5.55112e-17
452 2 141.674 164.806 -5.55112e-17
453 1 87.0635 21.9416 -5.55112e-17
454 1 199.354 133.883 -5.55112e-17
455 2 4.62198 214.557 -5.55112e-17
456 1 45.9523 0.0365866 -5.55112e-17
457 2 197.578 115.555 -5.55112e-17
458 2 41.567 80.9268 -5.55112e-17
459 2 99.689 90.1246 -5.55112e-17
460 1 116.431 111.543 -5.55112e-17
461 1 75.9622 198.842 -5.55112e-17
462 1 33.1818 114.623 -5.55112e-17
463 2 38.5975 81.2153 -5.55112e-17
464 2 28.5173 69.9445 -5.55112e-17
465 1 121.685 191.436 -5.55112e-17
466 2 98.9442 140.25 -5.55112e-17
467 2 132.301 158.599 -5.55112e-17
468 2 154.344 68.5112 -5.55112e-17
469 2 30.4786 156.848 -5.55112e-17
470 2 150.495 52.7471 -5.55112e-17
471 2 39.0613 17.3625 -5.55112e-17
472 2 21.0963 35.6995 -5.55112e-17
473 2 59.4326 22.3452 -5.55112e-17
474 2 89.5846 71.7116 -5.55112e-17
475 1 37.2667 78.7993 -5.55112e-17
476 2 159.859 96.1868 -5.55112e-17
477 1 107.874 149.187 -5.55112e-17
478 1 205.699 175.684 -5.55112e-17
479 2 217.131 60.5742 -5.55112e-17
480 1 14.6242 74.4425 -5.55112e-17
481 1 93.358 198.523 -5.55112e-17
482 2 183.112 1.05615 -5.55112e-17
483 1 58.092 36.6048 -5.55112e-17
484 1 129.033 34.3778 -5.55112e-17
485 2 86.3012 191.661 -5.55112e-17
486 1 10.2368 103.543 -5.55112e-17
487 1 110.529 165.749 -5.55112e-17
488 1 53.9277 104.512 -5.55112e-17
489 1 204.06 163.56 -5.55112e-17
490 1 68.6081 4.38406 -5.55112e-17
491 1 149.236 188.268 -5.55112e-17
492 2 196.631 171.183 -5.55112e-17
493 1 181.317 64.4488 -5.55112e-17
494 2 118.124 172.202 -5.55112e-17
495 1 182.096 138.647 -5.55112e-17
496 1 187.984 19.6851 -5.55112e-17
497 1 170.61 9.79258 -5.55112e-17
498 2 213.19 14.4538 -5.55112e-17
499 2 209.619 117.902 -5.55112e-17
500 2 88.152 194.436 -5.55112e-17
501 2 89.9346 22.5899 -5.55112e-17
502 2 8.10092 41.0945 -5.55112e-17
503 2 174.476 89.4377 -5.55112e-17
504 2 60.6807 5.94765 -5.55112e-17
505 2 44.4367 198.345 -5.55112e-17
506 1 71.5073 86.4302 -5.55112e-17
507 2 51.338 67.5442 -5.55112e-17
508 1 177.266 21.1798 -5.55112e-17
509 1 96.9754 8.16631 -5.55112e-17
510 1 117.755 33.4858 -5.55112e-17
511 2 4.1044 112.585 -5.55112e-17
512 1 126.436 119.568 -5.55112e-17
513 2 53.0895 177.721 -5.55112e-17
514 2 181.107 75.1982 -5.55112e-17
515 1 207.267 143.682 -5.55112e-17
516 2 49.2424 65.254 -5.55112e-17
517 1 49.3283 69.1842 -5.55112e-17
518 2 199.125 96.0328 -5.55112e-17
519 1 45.0508 62.5746 -5.55112e-17
520 2 187.682 17.1481 -5.55112e-17
521 2 155.212 195.046 -5.55112e-17
522 1 38.5171 103.702 -5.55112e-17
523 1 174.706 47.1339 -5.55112e-17
524 2 137.791 128.783 -5.55112e-17
525 2 25.2243 213.06 -5.55112e-17
526 2 31.5859 52.6128 -5.55112e-17
527 1 101.718 32.8814 -5.55112e-17
528 1 95.8763 75.5659 -5.55112e-17
529 2 202.176 188.564 -5.55112e-17
530 2 38.3516 208.68 -5.55112e-17
531 2 97.7869 143.301 -5.55112e-17
532 1 57.0213 68.3881 -5.55112e-17
533 2 132.417 121.102 -5.55112e-17
534 1 166.907 69.3634 -5.55112e-17
535 1 127.674 190.357 -5.55112e-17
536 2 5.65353 208.878 -5.55112e-17
537 1 8.87731 186.181 -5.55112e-17
538 1 180.529 162.461 -5.55112e-17
539 2 55.4725 158.301 -5.55112e-17
540 1 187.46 153.685 -5.55112e-17
541 1 22.7306 49.4604 -5.55112e-17
542 1 60.9792 128.722 -5.55112e-17
543 2 106.739 82.6576 -5.55112e-17
544 1 175.802 191.444 -5.55112e-17
545 1 211.766 58.3436 -5.55112e-17
546 2 25.8961 104.202 -5.55112e-17
547 1 76.9292 17.0364 -5.55112e-17
548 1 141.234 78.8518 -5.55112e-17
549 2 92.5489 24.6696 -5.55112e-17
550 2 216.94 167.402 -5.55112e-17
551 2 70.7214 18.9047 -5.55112e-17
552 1 153.549 108.4 -5.55112e-17
553 2 23.2121 171.566 -5.55112e-17
554 2 40.7088 75.4099 -5.55112e-17
555 2 142.538 66.0341 -5.55112e-17
556 1 23.381 211.274 -5.55112e-17
557 1 10.3158 26.9008 -5.55112e-17
558 1 14.1601 96.2742 -5.55112e-17
559 2 61.8272 195.42 -5.55112e-17
560 2 204.668 1.39068 -5.55112e-17
561 2 117.096 207.043 -5.55112e-17
562 2 21.399 161.9 -5.55112e-17
563 1 144.428 213.451 -5.55112e-17
564 2 123.994 133.875 -5.55112e-17
565 2 192.044 169.107 -5.55112e-17
566 2 134.344 25.6355 -5.55112e-17
567 1 6.19599 129.75 -5.55112e-17
568 1 87.9036 5.61167 -5.55112e-17
569 2 56.8968 126.718 -5.55112e-17
570 2 202.256 12.2966 -5.55112e-17
571 2 95.8754 67.6111 -5.55112e-17
572 1 88.5658 89.886 -5.55112e-17
573 2 182.141 116.521 -5.55112e-17
574 2 8.9048 178.913 -5.55112e-17
575 1 31.386 206.355 -5.55112e-17
576 1 60.4835 197.577 -5.55112e-17
577 1 45.5375 207.079 -5.55112e-17
578 1 109.275 193.144 -5.55112e-17
579 2 80.43 1.62915 -5.55112e-17
580 1 210.986 155.106 -5.55112e-17
581 1 197.904 169.021 -5.55112e-17
582 2 140.316 29.8745 -5.55112e-17
583 2 77.1751 7.53048 -5.55112e-17
584 2 178.74 115.403 -5.55112e-17
585 1 84.3565 127.381 -5.55112e-17
586 1 152.251 198.984 -5.55112e-17
587 1 109.054 15.2746 -5.55112e-17
588 2 51.9712 90.2926 -5.55112e-17
589 1 20.981 218.86 -5.55112e-17
590 2 4.95298 103.964 -5.55112e-17
591 2 60.2547 134.919 -5.55112e-17
592 1 185.644 146.858 -5.55112e-17
593 1 74.4006 155.436 -5.55112e-17
594 1 28.1394 177.192 -5.55112e-17
595 1 97.0863 57.0614 -5.55112e-17
596 2 100.972 130.5 -5.55112e-17
597 2 98.8046 81.4622 -5.55112e-17
598 2 96.7518 184.974 -5.55112e-17
599 2 62.6365 139.434 -5.55112e-17
600 2 120.595 160.479 -5.55112e-17
601 1 187.052 14.5905 -5.55112e-17
602 1 177.728 190.09 -5.55112e-17
603 2 26.6305 114.402 -5.55112e-17
604 1 9.00369 134.086 -5.55112e-17
605 2 199.868 136.394 -5.55112e-17
606 2 183.871 54.0615 -5.55112e-17
607 2 105.705 147.584 -5.55112e-17
608 2 98.0833 118.248 -5.55112e-17
609 1 158.531 129.911 -5.55112e-17
610 2 47.4151 91.2606 -5.55112e-17
611 1 168.665 16.2973 -5.55112e-17
612 1 132.639 31.0028 -5.55112e-17
613 2 150.741 208.267 -5.55112e-17
614 1 20.1653 54.8626 -5.55112e-17
615 1 69.4859 142.117 -5.55112e-17
616 2 76.8358 156.132 -5.55112e-17
617 1 101.299 181.954 -5.55112e-17
618 1 176.684 64.4763 -5.55112e-17
619 1 185.481 208.891 -5.55112e-17
620 2 186.424 47.3769 -5.55112e-17
621 2 73.5201 106.15 -5.55112e-17
622 2 72.0477 214.791 -5.55112e-17
623 2 78.292 131.767 -5.55112e-17
624 1 55.163 107.15 -5.55112e-17
625 2 88.6407 129.865 -5.55112e-17
626 1 68.7097 194.663 -5.55112e-17
627 2 174.547 30.8841 -5.55112e-17
628 1 162.226 135.085 -5.55112e-17
629 1 20.0225 140.873 -5.55112e-17
630 2 69.5994 64.5925 -5.55112e-17
631 2 33.1058 55.5329 -5.55112e-17
632 2 93.8163 124.067 -5.55112e-17
633 2 180.984 79.6565 -5.55112e-17
634 2 205.813 65.7435 -5.55112e-17
635 2 207.268 213.86 -5.55112e-17
636 1 80.7586 118.079 -5.55112e-17
637 1 94.0894 128.158 -5.55112e-17
638 1 29.2291 67.0094 -5.55112e-17
639 2 97.4678 73.0399 -5.55112e-17
640 2 106.027 203.429 -5.55112e-17
641 1 102.244 47.633 -5.55112e-17
642 2 92.6948 21.6463 -5.55112e-17
643 1 196.109 192.929 -5.55112e-17
644 2 135.676 22.977 -5.55112e-17
645 2 55.334 86.8512 -5.55112e-17
646 1 32.0325 100.146 -5.55112e-17
647 2 215.939 205.514 -5.55112e-17
648 2 70.7113 166.956 -5.55112e-17
649 1 145.277 24.838 -5.55112e-17
650 1 46.8593 82.4101 -5.55112e-17
651 1 33.459 189.582 -5.55112e-17
652 2 3.72245 25.7209 -5.55112e-17
653 2 215.129 216.357 -5.55112e-17
654 1 112.323 119.468 -5.55112e-17
655 1 141.662 68.4899 -5.55112e-17
656 1 63.1813 197.594 -5.55112e-17
657 1 216.214 202.889 -5.55112e-17
658 2 80.9809 175.272 -5.55112e-17
659 2 136.623 192.403 -5.55112e-17
660 1 168.834 138.819 -5.55112e-17
661 2 155.002 8.14407 -5.55112e-17
662 2 170.007 118.848 -5.55112e-17
663 1 82.8757 29.269 -5.55112e-17
664 1 163.011 0.837787 -5.55112e-17
665 1 152.99 25.9192 -5.55112e-17
666 1 102.051 52.5102 -5.55112e-17
667 1 204.788 182.256 -5.55112e-17
668 1 90.4627 44.8611 -5.55112e-17
669 1 59.9548 65.5789 -5.55112e-17
670 2 168.539 160.719 -5.55112e-17
671 1 69.3449 11.7468 -5.55112e-17
672 1 202.141 166.806 -5.55112e-17
673 2 212.49 152.843 -5.55112e-17
674 2 78.5691 193.768 -5.55112e-17
675 2 11.7688 107.663 -5.55112e-17
676 1 48.3398 35.2584 -5.55112e-17
677 2 4.44969 68.9367 -5.55112e-17
678 1 86.9543 171.61 -5.55112e-17
679 1 212.155 216.362 -5.55112e-17
680 2 196.925 166.895 -5.55112e-17
681 1 141.129 184.332 -5.55112e-17
682 1 32.1517 21.4414 -5.55112e-17
683 2 201.832 164.398 -5.55112e-17
684 1 135.968 185.118 -5.55112e-17
685 1 80.1841 125.194 -5.55112e-17
686 1 98.7886 169.434 -5.55112e-17
687 1 65.3985 42.5791 -5.55112e-17
688 1 63.1034 210.551 -5.55112e-17
689 2 69.5859 84.4086 -5.55112e-17
690 1 181.421 160.569 -5.55112e-17
691 2 190.323 18.4679 -5.55112e-17
692 2 91.7 121.587 -5.55112e-17
693 1 42.5633 52.4192 -5.55112e-17
694 2 154.52 170.962 -5.55112e-17
695 2 199.086 206.364 -5.55112e-17
696 2 134.886 73.0102 -5.55112e-17
697 1 210.592 133.34 -5.55112e-17
698 2 22.3297 32.454 -5.55112e-17
699 1 141.669 40.9819 -5.55112e-17
700 2 177.946 145.404 -5.55112e-17
701 2 195.173 169.065 -5.55112e-17
702 1 156.871 185.329 -5.55112e-17
703 1 116.697 119.472 -5.55112e-17
704 1 144.336 140.641 -5.55112e-17
705 1 175.455 14.0576 -5.55112e-17
706 1 69.7516 155.943 -5.55112e-17
707 1 21.7796 22.7967 -5.55112e-17
708 2 209.391 150.062 -5.55112e-17
709 1 198.747 6.25118 -5.55112e-17
710 2 32.8187 151.449 -5.55112e-17
711 2 1.3278 70.0029 -5.55112e-17
712 1 105.816 59.6365 -5.55112e-17
713 1 212.26 105.188 -5.55112e-17
714 2 192.248 141.367 -5.55112e-17
715 2 166.087 186.214 -5.55112e-17
716 1 150.074 104.937 -5.55112e-17
717 1 65.6138 76.5386 -5.55112e-17
718 2 0.652502 162.284 -5.55112e-17
719 1 124.16 17.5676 -5.55112e-17
720 2 11.9614 181.533 -5.55112e-17
721 2 58.1469 188.527 -5.55112e-17
722 2 183.754 159.635 -5.55112e-17
723 2 11.9661 28.7639 -5.55112e-17
724 2 134.183 137.591 -5.55112e-17
725 2 142.649 171.348 -5.55112e-17
726 2 56.3351 138.481 -5.55112e-17
727 2 10.6008 123.023 -5.55112e-17
728 1 128.463 169.251 -5.55112e-17
729 2 30.3641 109.841 -5.55112e-17
730 2 124.883 87.8269 -5.55112e-17
731 1 106.417 107.423 -5.55112e-17
732 2 181.871 157.673 -5.55112e-17
733 2 199.594 16.0545 -5.55112e-17
734 2 37.324 111.923 -5.55112e-17
735 2 76.7042 96.9894 -5.55112e-17
736 1 81.6587 38.7931 -5.55112e-17
737 2 62.549 79.3763 -5.55112e-17
738 2 139.889 143.167 -5.55112e-17
739 2 170.629 211.184 -5.55112e-17
740 2 161.379 210.257 -5.55112e-17
741 2 186.898 112.194 -5.55112e-17
742 1 20.1744 27.6793 -5.55112e-17
743 2 167.865 172.185 -5.55112e-17
744 1 17.0991 92.8123 -5.55112e-17
745 2 89.1522 122.508 -5.55112e-17
746 1 135.198 167.818 -5.55112e-17
747 1 191.046 194.055 -5.55112e-17
748 2 38.0261 143.956 -5.55112e-17
749 1 189.13 157.736 -5.55112e-17
750 1 111.682 176.7 -5.55112e-17
751 1 8.66381 24.9792 -5.55112e-17
752 2 156.122 218.782 -5.55112e-17
753 1 109.628 87.0663 -5.55112e-17
754 2 189.402 45.9755 -5.55112e-17
755 1 98.0389 26.3521 -5.55112e-17
756 2 116.068 17.0712 -5.55112e-17
757 1 132.929 35.7673 -5.55112e-17
758 2 195.419 180.241 -5.55112e-17
759 1 164.483 190.521 -5.55112e-17
760 1 38.4566 159.709 -5.55112e-17
761 2 168.364 82.7988 -5.55112e-17
762 1 206.57 163.844 -5.55112e-17
763 2 133.9 15.5632 -5.55112e-17
764 2 26.838 7.26351 -5.55112e-17
765 1 105.518 123.56 -5.55112e-17
766 2 205.404 200.76 -5.55112e-17
767 2 92.2969 188.711 -5.55112e-17
768 2 200.31 101.197 -5.55112e-17
769 2 46.4882 96.3438 -5.55112e-17
770 1 175.964 42.4891 -5.55112e-17
771 1 24.152 162.16 -5.55112e-17
772 1 127.663 10.0009 -5.55112e-17
773 2 144.921 89.6973 -5.55112e-17
774 1 19.5281 166.861 -5.55112e-17
775 1 47.4933 135.091 -5.55112e-17
776 2 69.7853 189.051 -5.55112e-17
777 2 43.2959 195.076 -5.55112e-17
778 1 131.242 164.169 -5.55112e-17
779 1 186.342 10.4925 -5.55112e-17
780 2 43.9529 7.46363 -5.55112e-17
781 1 66.667 199.643 -5.55112e-17
782 2 193.744 110.114 -5.55112e-17
783 1 72.3713 64.7452 -5.55112e-17
784 2 2.13826 125.698 -5.55112e-17
785 1 99.1342 30.8915 -5.55112e-17
786 1 149.195 74.7829 -5.55112e-17
787 2 179.053 63.2015 -5.55112e-17
788 2 126.174 124.162 -5.55112e-17
789 2 151.204 30.6289 -5.55112e-17
790 2 159.453 196.893 -5.55112e-17
791 2 217.605 152.651 -5.55112e-17
792 1 188.46 194.475 -5.55112e-17
793 1 189.35 155.147 -5.55112e-17
794 2 136.951 19.9234 -5.55112e-17
795 2 17.3557 55.3048 -5.55112e-17
796 1 208.102 210.998 -5.55112e-17
797 1 14.7391 88.5259 -5.55112e-17
798 1 175.745 5.37527 -5.55112e-17
799 2 160.384 51.3775 -5.55112e-17
800 1 150.678 120.807 -5.55112e-17
801 2 25.529 87.8725 -5.55112e-17
802 1 176.267 147.568 -5.55112e-17
803 1 142.449 182.226 -5.55112e-17
804 1 200.161 162.385 -5.55112e-17
805 2 150.522 171.048 -5.55112e-17
806 2 207.977 7.92373 -5.55112e-17
807 2 109.714 156.936 -5.55112e-17
808 2 158.751 58.9845 -5.55112e-17
809 1 32.9957 37.1988 -5.55112e-17
810 2 34.5408 52.3507 -5.55112e-17
811 2 207.984 216.658 -5.55112e-17
812 1 41.3424 187.674 -5.55112e-17
813 1 163.471 23.0018 -5.55112e-17
814 1 11.2449 143.779 -5.55112e-17
815 1 70.0691 210.74 -5.55112e-17
816 1 131.416 20.5506 -5.55112e-17
817 2 83.7423 175.603 -5.55112e-17
818 2 111.707 71.2865 -5.55112e-17
819 2 22.5036 108.37 -5.55112e-17
820 1 6.41753 24.9903 -5.55112e-17
821 1 0.459857 136.377 -5.55112e-17
822 2 89.2098 170.808 -5.55112e-17
823 1 186.609 206.679 -5.55112e-17
824 1 64.6116 204.138 -5.55112e-17
825 1 43.2807 91.3363 -5.55112e-17
826 2 194.256 83.2425 -5.55112e-17
827 2 144.426 16.5675 -5.55112e-17
828 1 56.055 70.6717 -5.55112e-17
829 2 204.65 158.74 -5.55112e-17
830 1 120.308 37.2678 -5.55112e-17
831 2 97.3243 28.9599 -5.55112e-17
832 2 138.596 22.5916 -5.55112e-17
833 2 156.071 190.37 -5.55112e-17
834 1 103.776 10.566 -5.55112e-17
835 1 150.111 146.878 -5.55112e-17
836 1 71.5554 57.4486 -5.55112e-17
837 2 96.1689 193.751 -5.55112e-17
838 2 43.5257 218.437 -5.55112e-17
839 1 157.733 194.798 -5.55112e-17
840 2 89.3459 184.895 -5.55112e-17
841 2 5.27021 151.881 -5.55112e-17
842 1 170.771 172.02 -5.55112e-17
843 1 162.016 8.59995 -5.55112e-17
844 2 171.321 192.768 -5.55112e-17
845 1 91.8485 61.8683 -5.55112e-17
846 2 168.181 147.339 -5.55112e-17
847 1 63.5391 167.433 -5.55112e-17
848 2 199.274 25.8632 -5.55112e-17
849 1 42.948 177.814 -5.55112e-17
850 2 8.40876 163.295 -5.55112e-17
851 2 176.603 125.78 -5.55112e-17
852 1 113.046 65.0449 -5.55112e-17
853 1 97.4848 209.678 -5.55112e-17
854 2 200.511 88.9951 -5.55112e-17
855 2 96.1975 174.968 -5.55112e-17
856 1 77.4498 39.9953 -5.55112e-17