ITEM: TIMESTEP
0
ITEM: NUMBER OF ATOMS
7200
ITEM: BOX BOUNDS xy xz yz pp pp pp
0.0000000000000000e+00 2.1900000000000000e+02 0.0000000000000000e+00
0.0000000000000000e+00 2.1900000000000000e+02 0.0000000000000000e+00
-3.6499999999999999e-01 3.6499999999999999e-01 0.0000000000000000e+00
ITEM: ATOMS id type x y z
1 1 130.845 8.16757 -5.55112e-17
2 2 26.1873 210.765 -5.55112e-17
3 2 174.547 180.685 -5.55112e-17
4 1 116.155 133.236 -5.55112e-17
5 1 79.6886 60.1402 -5.55112e-17
6 1 134.247 205.018 -5.55112e-17
7 2 167.401 192.44 -5.55112e-17
8 2 116.434 53.0039 -5.55112e-17
9 1 47.0493 207.554 -5.55112e-17
10 2 38.4677 132.901 -5.55112e-17
11 2 180.966 81.9518 -5.55112e-17
12 1 45.1188 208.837 -5.55112e-17
13 2 186.158 58.164 -5.55112e-17
14 1 155.032 167.973 -5.55112e-17
15 2 20.8183 199.095 -5.55112e-17
16 2 179.9 110.171 -5.55112e-17
17 1 77.4804 39.518 -5.55112e-17
18 2 214.436 133.683 -5.55112e-17
19 1 212.571 104.311 -5.55112e-17
20 1 100.194 37.0997 -5.55112e-17
21 1 143.359 146.325 -5.55112e-17
22 2 50.5756 13.6481 -5.55112e-17
23 2 48.7694 182.842 -5.55112e-17
24 2 180.44 84.7197 -5.55112e-17
25 2 35.1424 190.064 -5.55112e-17
26 2 139.973 22.4004 -5.55112e-17
27 1 2.97045 199.53 -5.55112e-17
28 2 52.9332 124.945 -5.55112e-17
29 2 117.394 84.0393 -5.55112e-17
30 2 85.4277 80.8478 -5.55112e-17
31 2 146.87 90.3215 -5.55112e-17
32 1 43.4757 171.369 -5.55112e-17
33 2 140.793 93.4848 -5.55112e-17
34 2 214.934 108.19 -5.55112e-17
35 2 116.771 86.7452 -5.55112e-17
36 1 135.13 172.269 -5.55112e-17
37 1 142.702 25.903 -5.55112e-17
38 2 211.043 152.708 -5.55112e-17
39 1 0.101134 50.1135 -5.55112e-17
40 2 186.377 103.678 -5.55112e-17
41 1 58.6724 59.6646 -5.55112e-17
42 1 65.928 39.0731 -5.55112e-17
43 1 204.631 134.885 -5.55112e-17
44 1 150.106 128.985 -5.55112e-17
45 2 49.8918 34.0257 -5.55112e-17
46 1 142.826 202.348 -5.55112e-17
47 2 178.905 60.8051 -5.55112e-17
48 2 215.591 103.5 -5.55112e-17
49 1 184.229 7.53401 -5.55112e-17
50 2 217.935 20.7522 -5.55112e-17
51 1 7.79211 184.762 -5.55112e-17
52 1 90.1612 120.195 -5.55112e-17
53 2 102.753 211.866 -5.55112e-17
54 1 126.313 32.7848 -5.55112e-17
55 2 37.0201 123.478 -5.55112e-17
56 1 40.9611 73.6795 -5.55112e-17
57 2 211.247 78.5296 -5.55112e-17
58 1 183.899 32.7833 -5.55112e-17
59 1 148.704 92.0278 -5.55112e-17
60 2 174.756 95.0925 -5.55112e-17
61 1 188.674 119.915 -5.55112e-17
62 1 96.3646 116.435 -5.55112e-17
63 2 110.235 210.14 -5.55112e-17
64 1 13.3903 24.6179 -5.55112e-17
65 2 134.696 135.432 -5.55112e-17
66 2 12.5065 118.151 -5.55112e-17
67 2 162.38 96.6677 -5.55112e-17
68 1 129.478 98.6047 -5.55112e-17
69 2 139.765 137.125 -5.55112e-17
70 1 134.17 121.082 -5.55112e-17
71 1 13.5572 84.1542 -5.55112e-17
72 2 32.3924 113.312 -5.55112e-17
73 2 197.864 166.792 -5.55112e-17
74 2 189.878 42.0962 -5.55112e-17
75 1 214.446 105.558 -5.55112e-17
76 2 147.94 155.157 -5.55112e-17
77 2 202.101 112.947 -5.55112e-17
78 1 169.137 178.283 -5.55112e-17
79 2 90.8136 23.6393 -5.55112e-17
80 1 217.401 52.3666 -5.55112e-17
81 1 175.772 196.259 -5.55112e-17
82 1 165.261 82.4869 -5.55112e-17
83 1 70.329 35.8322 -5.55112e-17
84 2 160.061 26.2347 -5.55112e-17
85 2 175.615 208.591 -5.55112e-17
86 2 87.9421 48.3332 -5.55112e-17
87 2 217.4 109.665 -5.55112e-17
88 1 43.8808 102.415 -5.55112e-17
89 2 134.658 180.184 -5.55112e-17
90 2 166.362 43.8987 -5.55112e-17
91 2 1.99599 167.399 -5.55112e-17
92 1 14.5419 179.58 -5.55112e-17
93 2 110.953 178.469 -5.55112e-17
94 2 167.671 115.617 -5.55112e-17
95 1 216.816 3.06848 -5.55112e-17
96 2 7.36701 28.3197 -5.55112e-17
97 2 35.7751 208.981 -5.55112e-17
98 2 13.4908 36.3364 -5.55112e-17
99 1 80.0722 206.785 -5.55112e-17
100 2 211.335 11.819 -5.55112e-17
101 1 162.903 102.168 -5.55112e-17
102 1 24.4821 161.171 -5.55112e-17
103 2 212.337 94.8453 -5.55112e-17
104 2 51.0061 44.0686 -5.55112e-17
105 1 202.82 24.4021 -5.55112e-17
106 1 207.601 59.3863 -5.55112e-17
107 1 183.466 171.408 -5.55112e-17
108 1 107.697 26.3188 -5.55112e-17
109 2 101.011 6.03041 -5.55112e-17
110 2 166.751 8.02603 -5.55112e-17
111 1 202.206 85.6553 -5.55112e-17
112 2 209.654 85.9785 -5.55112e-17
113 1 201.098 23.0559 -5.55112e-17
114 1 63.1202 129.075 -5.55112e-17
115 2 16.3258 72.2135 -5.55112e-17
116 2 192.41 29.2495 -5.55112e-17
117 1 129.761 147.523 -5.55112e-17
118 1 87.4654 110.972 -5.55112e-17
119 2 69.2016 144.361 -5.55112e-17
120 2 159.114 55.363 -5.55112e-17
121 1 1.60148 65.8395 -5.55112e-17
122 2 153.536 152.805 -5.55112e-17
123 2 30.4125 53.1106 -5.55112e-17
124 1 136.405 159.97 -5.55112e-17
125 1 169.943 188.225 -5.55112e-17
126 2 75.2643 22.0469 -5.55112e-17
127 2 55.9814 41.6973 -5.55112e-17
128 1 115.487 128.474 -5.55112e-17
129 1 189.417 131.738 -5.55112e-17
130 2 168.463 214.02 -5.55112e-17
131 1 84.5888 89.6957 -5.55112e-17
132 1 134.778 2.13173 -5.55112e-17
133 1 1.83131 151.458 -5.55112e-17
134 1 134.968 15.2773 -5.55112e-17
135 2 123.77 77.6257 -5.55112e-17
136 1 100.218 151.216 -5.55112e-17
137 1 116.375 194.323 -5.55112e-17
138 2 147.185 125.358 -5.55112e-17
139 1 53.4777 75.586 -5.55112e-17
140 1 158.102 18.0508 -5.55112e-17
141 1 218.338 12.8219 -5.55112e-17
142 1 9.20346 130.975 -5.55112e-17
143 1 7.90357 25.974 -5.55112e-17
144 1 217.809 71.7234 -5.55112e-17
145 2 5.99126 209.58 -5.55112e-17
146 1 7.82411 135.024 -5.55112e-17
147 2 188.628 100.975 -5.55112e-17
148 1 57.5542 74.3591 -5.55112e-17
149 1 24.1437 91.1979 -5.55112e-17
150 2 20.388 119.362 -5.55112e-17
151 1 141.788 180.577 -5.55112e-17
152 1 216.708 182.986 -5.55112e-17
153 2 53.0309 143.951 -5.55112e-17
154 1 179.387 87.1535 -5.55112e-17
155 2 149.25 66.6296 -5.55112e-17
156 2 85.5477 201.068 -5.55112e-17
157 2 177.158 2.34099 -5.55112e-17
158 2 68.539 11.0894 -5.55112e-17
159 2 82.5047 163.155 -5.55112e-17
160 2 213.434 19.2187 -5.55112e-17
161 2 80.0178 143.068 -5.55112e-17
162 1 186.731 90.5681 -5.55112e-17
163 1 33.4809 40.661 -5.55112e-17
164 2 95.1643 149.411 -5.55112e-17
165 1 6.95173 41.2244 -5.55112e-17
166 2 49.5267 198.45 -5.55112e-17
167 1 130.554 172.833 -5.55112e-17
168 1 15.7592 196.791 -5.55112e-17
169 2 48.2828 180.102 -5.55112e-17
170 1 172.114 193.598 -5.55112e-17
171 1 127.651 105.901 -5.55112e-17
172 1 202.416 123.131 -5.55112e-17
173 1 54.1995 164.994 -5.55112e-17
174 2 65.3117 127.184 -5.55112e-17
175 2 108.929 55.4663 -5.55112e-17
176 1 132.133 203.819 -5.55112e-17
177 2 106.813 36.2362 -5.55112e-17
178 1 9.61003 217.836 -5.55112e-17
179 2 137.487 58.6737 -5.55112e-17
180 1 27.4641 57.5709 -5.55112e-17
181 1 41.3808 167.378 -5.55112e-17
182 1 101.079 155.323 -5.55112e-17
183 1 27.0567 66.7693 -5.55112e-17
184 2 178.57 159.912 -5.55112e-17
185 2 189.904 124.201 -5.55112e-17
186 2 97.3244 210.755 -5.55112e-17
187 2 161.015 183.828 -5.55112e-17
188 2 36.8524 5.18504 -5.55112e-17
189 1 137.886 51.4078 -5.55112e-17
190 1 35.9123 41.4425 -5.55112e-17
191 2 30.8854 81.6877 -5.55112e-17
192 2 79.4842 41.2823 -5.55112e-17
193 1 165.06 5.49003 -5.55112e-17
194 1 90.5479 6.8922 -5.55112e-17
195 2 119.617 118.65 -5.55112e-17
196 1 217.495 145.174 -5.55112e-17
197 2 17.0655 75.1667 -5.55112e-17
198 2 218.259 15.4677 -5.55112e-17
199 2 140 155.815 -5.55112e-17
200 2 20.8898 21.8333 -5.55112e-17
201 2 138.673 190.125 -5.55112e-17
202 1 114.852 123.827 -5.55112e-17
203 1 75.353 7.09301 -5.55112e-17
204 2 36.9867 156.851 -5.55112e-17
205 2 202.979 137.096 -5.55112e-17
206 2 218.69 130.013 -5.55112e-17
207 1 53.0717 177.249 -5.55112e-17
208 2 147.521 27.9199 -5.55112e-17
209 2 50.1004 121.579 -5.55112e-17
210 1 22.0778 26.5965 -5.55112e-17
211 1 205.303 24.1679 -5.55112e-17
212 1 58.3275 85.2584 -5.55112e-17
213 1 126.414 143.348 -5.55112e-17
214 2 203.645 209.382 -5.55112e-17
215 1 207.68 145.589 -5.55112e-17
216 1 101.626 17.4484 -5.55112e-17
217 1 140.848 27.8608 -5.55112e-17
218 2 195.02 176.024 -5.55112e-17
219 2 132.162 6.00656 -5.55112e-17
220 1 149.697 56.6712 -5.55112e-17
221 2 89.2992 38.8673 -5.55112e-17
222 1 148.802 133.601 -5.55112e-17
223 1 20.8659 182.539 -5.55112e-17
224 2 67.0798 82.5441 -5.55112e-17
225 2 102.235 10.7882 -5.55112e-17
226 1 207.312 54.5813 -5.55112e-17
227 2 2.96052 196.92 -5.55112e-17
228 2 95.5011 77.5199 -5.55112e-17
229 1 9.41186 42.3786 -5.55112e-17
230 1 68.8115 87.8572 -5.55112e-17
231 2 105.432 170.727 -5.55112e-17
232 1 32.2879 21.8849 -5.55112e-17
233 2 56.2755 8.14803 -5.55112e-17
234 1 120.09 62.8943 -5.55112e-17
235 1 161.581 116.873 -5.55112e-17
236 2 136.893 54.0659 -5.55112e-17
237 2 104.12 144.899 -5.55112e-17
238 2 101.447 126.024 -5.55112e-17
239 1 49.2961 195.844 -5.55112e-17
240 1 118.629 103.39 -5.55112e-17
241 2 8.21749 141.86 -5.55112e-17
242 1 149.996 23.0993 -5.55112e-17
243 2 183.781 203.049 -5.55112e-17
244 2 195.476 180.974 -5.55112e-17
245 1 178.152 189.581 -5.55112e-17
246 2 62.6648 126.478 -5.55112e-17
247 2 117.456 165.931 -5.55112e-17
248 1 84.9251 41.864 -5.55112e-17
249 1 123.509 127.739 -5.55112e-17
250 1 130.972 85.6739 -5.55112e-17
251 2 93.1508 127.652 -5.55112e-17
252 1 135.524 122.795 -5.55112e-17
253 2 3.2305 110.407 -5.55112e-17
254 2 179.447 172.038 -5.55112e-17
255 2 52.8648 109.929 -5.55112e-17
256 1 27.954 186.384 -5.55112e-17
257 2 67.0061 161.083 -5.55112e-17
258 1 176.782 90.787 -5.55112e-17
259 2 202.923 144.158 -5.55112e-17
260 1 52.7919 148.681 -5.55112e-17
261 2 155.559 155.655 -5.55112e-17
262 2 201.793 101.389 -5.55112e-17
263 2 112.492 14.9661 -5.55112e-17
264 1 117.557 26.762 -5.55112e-17
265 1 125.428 3.62949 -5.55112e-17
266 1 64.3212 175.384 -5.55112e-17
267 2 131.123 32.6262 -5.55112e-17
268 1 190.517 84.4396 -5.55112e-17
269 2 36.9498 55.8854 -5.55112e-17
270 2 1.9982 186.186 -5.55112e-17
271 2 171.977 70.9315 -5.55112e-17
272 1 135.514 28.6119 -5.55112e-17
273 1 9.15528 67.418 -5.55112e-17
274 1 201.203 202.028 -5.55112e-17
275 1 171.686 136.984 -5.55112e-17
276 1 170.398 73.3644 -5.55112e-17
277 1 79.2909 18.5164 -5.55112e-17
278 2 9.68165 125.417 -5.55112e-17
279 2 151.257 91.4653 -5.55112e-17
280 1 99.4049 10.7853 -5.55112e-17
281 2 122.775 200.526 -5.55112e-17
282 2 35.4824 126.373 -5.55112e-17
283 2 198.209 160.488 -5.55112e-17
284 1 120.157 134.927 -5.55112e-17
285 1 101.258 107.233 -5.55112e-17
286 2 88.4342 73.9836 -5.55112e-17
287 2 99.2664 64.961 -5.55112e-17
288 1 49.8709 119.05 -5.55112e-17
289 2 117.604 5.64135 -5.55112e-17
290 1 131.445 54.7376 -5.55112e-17
291 2 194.798 165.859 -5.55112e-17
292 1 77.4896 20.2886 -5.55112e-17
293 1 145.34 109.131 -5.55112e-17
294 1 43.0255 136.869 -5.55112e-17
295 2 38.8659 15.4628 -5.55112e-17
296 1 179.734 142.777 -5.55112e-17
297 1 72.9312 205.792 -5.55112e-17
298 2 23.6625 124.57 -5.55112e-17
299 1 196.184 35.1378 -5.55112e-17
300 2 181.868 208.021 -5.55112e-17
301 2 44.4743 211.595 -5.55112e-17
302 2 185.725 95.056 -5.55112e-17
303 1 53.1291 127.818 -5.55112e-17
304 1 110.151 133.811 -5.55112e-17
305 1 89.691 189.016 -5.55112e-17
306 2 90.7147 32.7671 -5.55112e-17
307 2 178.599 6.77573 -5.55112e-17
308 2 9.10469 208.253 -5.55112e-17
309 1 117.172 101.28 -5.55112e-17
310 1 182.542 194.965 -5.55112e-17
311 1 168.924 113.241 -5.55112e-17
312 2 54.3908 55.9699 -5.55112e-17
313 2 2.46645 209.443 -5.55112e-17
314 1 167.354 66.6063 -5.55112e-17
315 2 41.1128 11.1679 -5.55112e-17
316 1 109.479 60.8738 -5.55112e-17
317 1 164.748 193.059 -5.55112e-17
318 1 204.78 168.573 -5.55112e-17
319 2 142.011 172.956 -5.55112e-17
320 1 178.748 80.4163 -5.55112e-17
321 1 159.201 67.6071 -5.55112e-17
322 1 45.9787 27.784 -5.55112e-17
323 2 109.443 172.994 -5.55112e-17
324 2 39.6002 43.7363 -5.55112e-17
325 2 9.51191 202.706 -5.55112e-17
326 1 165.483 37.5562 -5.55112e-17
327 1 10.9341 37.9208 -5.55112e-17
328 2 78.0038 37.0524 -5.55112e-17
329 2 26.4227 109.813 -5.55112e-17
330 2 113.516 114.979 -5.55112e-17
331 2 213.178 28.4005 -5.55112e-17
332 2 145.614 193.449 -5.55112e-17
333 2 0.257462 121.957 -5.55112e-17
334 2 202.496 10.5615 -5.55112e-17
335 1 218.998 137.388 -5.55112e-17
336 2 39.9941 138.196 -5.55112e-17
337 2 128.817 195.188 -5.55112e-17
338 1 208.374 159.021 -5.55112e-17
339 2 53.3353 182.412 -5.55112e-17
340 2 213.035 158.434 -5.55112e-17
341 2 58.0112 100.925 -5.55112e-17
342 2 100.017 176.187 -5.55112e-17
343 2 8.40018 179.229 -5.55112e-17
344 1 102.699 150.447 -5.55112e-17
345 2 88.0343 5.86199 -5.55112e-17
346 2 47.9747 74.9793 -5.55112e-17
347 1 147.118 118.702 -5.55112e-17
348 1 31.0111 205.534 -5.55112e-17
349 2 161.75 68.2978 -5.55112e-17
350 2 53.5013 158.958 -5.55112e-17
351 1 157.282 95.0825 -5.55112e-17
352 1 178.139 167.027 -5.55112e-17
353 2 140.914 115.567 -5.55112e-17
354 2 43.928 181.765 -5.55112e-17
355 1 186.494 175.817 -5.55112e-17
356 2 180.061 194.716 -5.55112e-17
357 1 93.4516 10.5066 -5.55112e-17
358 1 105.451 62.2304 -5.55112e-17
359 1 14.4663 146.987 -5.55112e-17
360 1 37.3837 216.204 -5.55112e-17
361 2 146.359 67.2341 -5.55112e-17
362 2 138.406 139.979 -5.55112e-17
363 1 76.4511 32.6066 -5.55112e-17
364 2 77.8772 23.0029 -5.55112e-17
365 1 211.662 177.419 -5.55112e-17
366 1 73.1471 200.255 -5.55112e-17
367 1 145.643 41.9764 -5.55112e-17
368 1 52.5465 163.459 -5.55112e-17
369 2 44.5415 125.067 -5.55112e-17
370 1 147.844 108.493 -5.55112e-17
371 2 68.2022 77.4508 -5.55112e-17
372 1 91.6424 18.4269 -5.55112e-17
373 2 76.1081 175.384 -5.55112e-17
374 2 196.632 66.1187 -5.55112e-17
375 1 88.5921 76.4955 -5.55112e-17
376 1 119.064 156.162 -5.55112e-17
377 2 133.598 64.9745 -5.55112e-17
378 2 201.127 181.563 -5.55112e-17
379 2 171.493 186.096 -5.55112e-17
380 1 172.266 76.4792 -5.55112e-17
381 1 168.011 183.331 -5.55112e-17
382 1 142.702 70.3226 -5.55112e-17
383 1 67.6643 54.4057 -5.55112e-17
384 2 32.4461 50.5368 -5.55112e-17
385 1 157.667 132.041 -5.55112e-17
386 2 181.839 176.568 -5.55112e-17
387 1 217.423 47.9212 -5.55112e-17
388 1 156.243 163.747 -5.55112e-17
389 2 152.224 95.9027 -5.55112e-17
390 1 180.984 26.3451 -5.55112e-17
391 1 197.267 200.795 -5.55112e-17
392 2 13.2564 39.225 -5.55112e-17
393 2 195.86 202.909 -5.55112e-17
394 1 37.4743 149.347 -5.55112e-17
395 1 103.641 201.851 -5.55112e-17
396 2 67.1551 108.966 -5.55112e-17
397 1 80.7722 33.6573 -5.55112e-17
398 2 164.189 145.378 -5.55112e-17
399 2 169.302 91.5691 -5.55112e-17
400 2 92.2301 29.8085 -5.55112e-17
401 2 60.9401 166.369 -5.55112e-17
402 1 58.6234 195.626 -5.55112e-17
403 1 99.6474 78.5584 -5.55112e-17
404 2 62.9413 71.8671 -5.55112e-17
405 1 107.197 172.459 -5.55112e-17
406 2 217.231 124.476 -5.55112e-17
407 1 93.5229 25.0356 -5.55112e-17
408 1 167.134 211.756 -5.55112e-17
409 2 178.806 145.216 -5.55112e-17
410 2 28.3937 83.7113 -5.55112e-17
411 1 126.175 101.534 -5.55112e-17
412 1 114.908 68.7704 -5.55112e-17
413 1 87.1692 89.835 -5.55112e-17
414 2 183.131 0.167396 -5.55112e-17
415 1 103.859 140.139 -5.55112e-17
416 1 115.276 82.0047 -5.55112e-17
417 2 55.2523 123.113 -5.55112e-17
418 2 70.4633 155.607 -5.55112e-17
419 2 162.91 138.389 -5.55112e-17
420 2 80.3609 120.031 -5.55112e-17
421 1 119.301 86.5057 -5.55112e-17
422 1 25.8235 84.0809 -5.55112e-17
423 2 132.08 15.4917 -5.55112e-17
424 2 41.9129 34.705 -5.55112e-17
425 2 136.019 133.04 -5.55112e-17
426 1 218.922 76.6265 -5.55112e-17
427 2 38.7594 72.0969 -5.55112e-17
428 1 21.9928 2.05784 -5.55112e-17
429 2 213.733 99.3655 -5.55112e-17
430 2 118.772 107.832 -5.55112e-17
431 1 11.2134 25.0857 -5.55112e-17
432 2 149.33 12.3088 -5.55112e-17
433 1 188.879 15.3068 -5.55112e-17
434 1 166.615 198.035 -5.55112e-17
435 1 138.494 94.3758 -5.55112e-17
436 2 78.7845 82.3441 -5.55112e-17
437 2 157.302 50.0936 -5.55112e-17
438 2 216.747 196.477 -5.55112e-17
439 2 82.7285 144.876 -5.55112e-17
440 2 204.941 146.344 -5.55112e-17
441 1 131.749 170.489 -5.55112e-17
442 1 3.765 52.5226 -5.55112e-17
443 2 53.7475 85.804 -5.55112e-17
444 1 194.891 83.2378 -5.55112e-17
445 1 203.623 170.872 -5.55112e-17
446 2 179.089 126.393 -5.55112e-17
447 2 94.3282 19.2922 -5.55112e-17
448 2 4.38626 201.59 -5.55112e-17
449 1 109.005 207.691 -5.55112e-17
450 1 184.214 125.985 -5.55112e-17
451 1 140.369 212.516 -5.55112e-17
452 2 194.659 12.0805 -5.55112e-17
453 1 179.784 116.794 -5.55112e-17
454 1 201.616 78.41 -5.55112e-17
455 2 215.757 143.428 -5.55112e-17
456 1 166.081 162.267 -5.55112e-17
457 2 188.67 4.9346 -5.55112e-17
458 2 185.599 159.438 -5.55112e-17
459 2 201.709 62.8166 -5.55112e-17
460 1 28.0703 193.992 -5.55112e-17
461 1 78.7473 150.984 -5.55112e-17
462 1 37.5777 135.739 -5.55112e-17
463 2 79.1105 179.401 -5.55112e-17
464 2 120.452 22.9715 -5.55112e-17
465 1 79.0621 70.4798 -5.55112e-17
466 2 13.4777 123.171 -5.55112e-17
467 2 39.3064 87.2691 -5.55112e-17
468 2 163.728 80.5195 -5.55112e-17
469 2 46.1007 106.923 -5.55112e-17
470 2 141.736 10.9521 -5.55112e-17
471 2 24.414 150.23 -5.55112e-17
472 2 103.479 18.9854 -5.55112e-17
473 2 178.307 20.3777 -5.55112e-17
474 2 51.4166 87.4643 -5.55112e-17
475 1 178.467 26.8678 -5.55112e-17
476 2 52.264 99.7367 -5.55112e-17
477 1 2.90708 216.291 -5.55112e-17
478 1 44.7816 198.414 -5.55112e-17
479 2 129.943 201.971 -5.55112e-17
480 1 95.5223 70.5931 -5.55112e-17
481 1 74.1441 150.383 -5.55112e-17
482 2 160.816 18.4146 -5.55112e-17
483 1 138.976 195.28 -5.55112e-17
484 1 66.8171 60.094 -5.55112e-17
485 2 3.0204 161.294 -5.55112e-17
486 1 205.181 16.9266 -5.55112e-17
487 1 71.5234 63.0317 -5.55112e-17
488 1 61.5152 89.1178 -5.55112e-17
489 1 144.258 200.145 -5.55112e-17
490 1 151.642 77.4761 -5.55112e-17
491 1 150.901 79.956 -5.55112e-17
492 2 45.6823 17.3466 -5.55112e-17
493 1 42.297 100.609 -5.55112e-17
494 2 73.1254 65.049 -5.55112e-17
495 1 143.662 99.9498 -5.55112e-17
496 1 106.124 87.9622 -5.55112e-17
497 1 136.566 113.547 -5.55112e-17
498 2 97.7475 97.5845 -5.55112e-17
499 2 131.524 74.9911 -5.55112e-17
500 2 123.279 29.4738 -5.55112e-17
501 2 9.40193 189.747 -5.55112e-17
502 2 197.96 121.334 -5.55112e-17
503 2 78.8078 0.676532 -5.55112e-17
504 2 50.7604 49.4504 -5.55112e-17
505 2 87.4459 182.749 -5.55112e-17
506 1 216.056 203.135 -5.55112e-17
507 2 73.7395 197.771 -5.55112e-17
508 1 62.9732 43.5066 -5.55112e-17
509 1 8.53503 32.9238 -5.55112e-17
510 1 175.931 73.8924 -5.55112e-17
511 2 98.6814 168.339 -5.55112e-17
512 1 205.606 118.711 -5.55112e-17
513 2 113.337 210.227 -5.55112e-17
514 2 157.851 112.329 -5.55112e-17
515 1 36.276 65.1359 -5.55112e-17
516 2 39.8386 93.0711 -5.55112e-17
517 1 31.268 60.1186 -5.55112e-17
518 2 46.0103 8.76628 -5.55112e-17
519 1 62.9961 96.5341 -5.55112e-17
520 2 23.4665 36.4115 -5.55112e-17
521 2 183.143 216.104 -5.55112e-17
522 1 3.67635 47.355 -5.55112e-17
523 1 116.472 109.209 -5.55112e-17
524 2 163.965 75.6782 -5.55112e-17
525 2 167.901 64.019 -5.55112e-17
526 2 137.428 202.927 -5.55112e-17
527 1 181.247 196.952 -5.55112e-17
528 1 199.791 215.915 -5.55112e-17
529 2 109.735 197.154 -5.55112e-17
530 2 187.852 27.0107 -5.55112e-17
531 2 164.999 172.423 -5.55112e-17
532 1 38.7493 109.122 -5.55112e-17
533 2 208.654 138.665 -5.55112e-17
534 1 19.102 176.65 -5.55112e-17
535 1 150.088 4.7924 -5.55112e-17
536 2 26.5991 123.817 -5.55112e-17
537 1 86.4391 116.43 -5.55112e-17
538 1 67.1318 178.886 -5.55112e-17
539 2 98.4645 205.981 -5.55112e-17
540 1 58.0341 51.8609 -5.55112e-17
541 1 123.75 150.588 -5.55112e-17
542 1 31.4184 14.1566 -5.55112e-17
543 2 176.976 162.542 -5.55112e-17
544 1 25.8863 187.831 -5.55112e-17
545 1 141.49 39.1854 -5.55112e-17
546 2 170.541 183.733 -5.55112e-17
547 1 38.6384 154.895 -5.55112e-17
548 1 87.334 3.40169 -5.55112e-17
549 2 35.6733 154.508 -5.55112e-17
550 2 180.837 202.005 -5.55112e-17
551 2 49.2005 36.9618 -5.55112e-17
552 1 1.66427 80.2283 -5.55112e-17
553 2 10.7013 197.84 -5.55112e-17
554 2 150.007 211.542 -5.55112e-17
555 2 137.396 154.347 -5.55112e-17
556 1 203.635 206.578 -5.55112e-17
557 1 4.0777 19.4907 -5.55112e-17
558 1 30.0307 128.232 -5.55112e-17
559 2 103.597 123.888 -5.55112e-17
560 2 57.3307 218.284 -5.55112e-17
561 2 110.384 191.673 -5.55112e-17
562 2 114.461 63.7123 -5.55112e-17
563 1 78.3758 129.526 -5.55112e-17
564 2 50.9606 75.1834 -5.55112e-17
565 2 17.9626 82.9628 -5.55112e-17
566 2 82.3278 31.6972 -5.55112e-17
567 1 114.978 186.353 -5.55112e-17
568 1 49.9511 46.7395 -5.55112e-17
569 2 150.006 141.737 -5.55112e-17
570 2 46.5586 34.5289 -5.55112e-17
571 2 169.382 76.134 -5.55112e-17
572 1 42.2542 92.1002 -5.55112e-17
573 2 198.227 92.5007 -5.55112e-17
574 2 187.243 117.448 -5.55112e-17
575 1 151.094 2.62651 -5.55112e-17
576 1 24.2899 66.7757 -5.55112e-17
577 1 112.844 140.544 -5.55112e-17
578 1 103.935 181.808 -5.55112e-17
579 2 11.9776 68.1109 -5.55112e-17
580 1 142.861 193.704 -5.55112e-17
581 1 76.1949 136.079 -5.55112e-17
582 2 112.508 112.336 -5.55112e-17
583 2 97.7716 100.915 -5.55112e-17
584 2 93.8276 203.449 -5.55112e-17
585 1 196.055 183.881 -5.55112e-17
586 1 144.922 83.3242 -5.55112e-17
587 1 184.722 55.704 -5.55112e-17
588 2 58.1332 29.7448 -5.55112e-17
589 1 36.3723 32.9968 -5.55112e-17
590 2 25.4554 201.28 -5.55112e-17
591 2 171.974 207.001 -5.55112e-17
592 1 0.624076 147.153 -5.55112e-17
593 1 121.201 103.348 -5.55112e-17
594 1 33.7566 17.625 -5.55112e-17
595 1 138.85 73.0072 -5.55112e-17
596 2 15.8184 106.585 -5.55112e-17
597 2 51.7462 136.995 -5.55112e-17
598 2 122.391 117.928 -5.55112e-17
599 2 35.4384 162.23 -5.55112e-17
600 2 29.7485 72.1196 -5.55112e-17
601 1 134.683 118.276 -5.55112e-17
602 1 162.956 34.0546 -5.55112e-17
603 2 164.011 112.185 -5.55112e-17
604 1 71.1753 170.38 -5.55112e-17
605 2 127.943 108.304 -5.55112e-17
606 2 159.695 94.9843 -5.55112e-17
607 2 51.3772 186.43 -5.55112e-17
608 2 115.682 112.364 -5.55112e-17
609 1 123.863 66.8162 -5.55112e-17
610 2 136.575 169.796 -5.55112e-17
611 1 26.8841 148.953 -5.55112e-17
612 1 10.2557 79.7166 -5.55112e-17
613 2 20.239 134.59 -5.55112e-17
614 1 172.581 5.24525 -5.55112e-17
615 1 140.1 103.193 -5.55112e-17
616 2 133.341 165.108 -5.55112e-17
617 1 61.37 168.725 -5.55112e-17
618 1 47.6241 120.318 -5.55112e-17
619 1 143.905 159.201 -5.55112e-17
620 2 61.2434 29.154 -5.55112e-17
621 2 190.61 71.8267 -5.55112e-17
622 2 195.469 160.579 -5.55112e-17
623 2 84.1558 152.027 -5.55112e-17
624 1 91.1885 202.928 -5.55112e-17
625 2 26.9802 50.5475 -5.55112e-17
626 1 54.8383 216.83 -5.55112e-17
627 2 170.383 168.596 -5.55112e-17
628 1 158.473 134.768 -5.55112e-17
629 1 34.6476 22.7206 -5.55112e-17
630 2 190.214 46.8593 -5.55112e-17
631 2 169.121 144.212 -5.55112e-17
632 2 54.8035 0.886666 -5.55112e-17
633 2 87.3143 40.8918 -5.55112e-17
634 2 26.9182 100.707 -5.55112e-17
635 2 33.5267 70.2524 -5.55112e-17
636 1 92.5143 145.599 -5.55112e-17
637 1 208.511 91.4908 -5.55112e-17
638 1 90.1445 4.27196 -5.55112e-17
639 2 153.963 120.008 -5.55112e-17
640 2 137.561 96.7706 -5.55112e-17
641 1 180.022 104.533 -5.55112e-17
642 2 205.343 38.2755 -5.55112e-17
643 1 84.4871 104.573 -5.55112e-17
644 2 177.265 179.692 -5.55112e-17
645 2 55.7085 99.49 -5.55112e-17
646 1 141.461 126.67 -5.55112e-17
647 2 88.576 180.097 -5.55112e-17
648 2 215.058 53.4762 -5.55112e-17
649 1 133.259 162.631 -5.55112e-17
650 1 11.8367 127.378 -5.55112e-17
651 1 156.832 129.188 -5.55112e-17
652 2 34.4894 164.944 -5.55112e-17
653 2 179.126 9.69099 -5.55112e-17
654 1 148.038 145.285 -5.55112e-17
655 1 166.394 54.3648 -5.55112e-17
656 1 198.485 15.9511 -5.55112e-17
657 1 122.172 141.569 -5.55112e-17
658 2 173.597 63.1084 -5.55112e-17
659 2 122.516 167.519 -5.55112e-17
660 1 43.4261 12.3464 -5.55112e-17
661 2 8.33203 17.4366 -5.55112e-17
662 2 130.516 133.677 -5.55112e-17
663 1 194.152 115.976 -5.55112e-17
664 1 55.9663 131.514 -5.55112e-17
665 1 142.553 164.647 -5.55112e-17
666 1 150.932 151.488 -5.55112e-17
667 1 170.77 101.611 -5.55112e-17
668 1 101.834 191.535 -5.55112e-17
669 1 71.7158 150.724 -5.55112e-17
670 2 12.8569 159.479 -5.55112e-17
671 1 16.0741 209.114 -5.55112e-17
672 1 151.592 13.8007 -5.55112e-17
673 2 0.640353 98.0932 -5.55112e-17
674 2 115.519 47.5681 -5.55112e-17
675 2 152.236 214.13 -5.55112e-17
676 1 152.299 160.768 -5.55112e-17
677 2 42.6972 31.7996 -5.55112e-17
678 1 129.399 62.0204 -5.55112e-17
679 1 111.816 181.105 -5.55112e-17
680 2 78.1027 44.3329 -5.55112e-17
681 1 30.9111 34.2865 -5.55112e-17
682 1 187.476 173.276 -5.55112e-17
683 2 68.0412 153.211 -5.55112e-17
684 1 18.4818 172.758 -5.55112e-17
685 1 34.7727 0.863338 -5.55112e-17
686 1 83.7033 113.505 -5.55112e-17
687 1 47.0615 99.7902 -5.55112e-17
688 1 146.306 99.3878 -5.55112e-17
689 2 198.434 208.263 -5.55112e-17
690 1 73.7602 132.207 -5.55112e-17
691 2 71.485 122.008 -5.55112e-17
692 2 183.351 190.638 -5.55112e-17
693 1 203.787 102.841 -5.55112e-17
694 2 164.873 94.5853 -5.55112e-17
695 2 139.148 84.711 -5.55112e-17
696 2 201.077 159.649 -5.55112e-17
697 1 160.606 35.8296 -5.55112e-17
698 2 33.2177 32.951 -5.55112e-17
699 1 92.064 184.726 -5.55112e-17
700 2 5.63714 115.818 -5.55112e-17
701 2 198.038 41.2585 -5.55112e-17
702 1 133.665 50.0152 -5.55112e-17
703 1 167.191 93.2696 -5.55112e-17
704 1 19.9575 97.5 -5.55112e-17
705 1 29.4259 135.104 -5.55112e-17
706 1 111.947 207.888 -5.55112e-17
707 1 72.0526 95.1427 -5.55112e-17
708 2 16.6824 162.676 -5.55112e-17
709 1 32.4205 150.309 -5.55112e-17
710 2 86.7263 21.0368 -5.55112e-17
711 2 173.479 41.8137 -5.55112e-17
712 1 95.8745 131.696 -5.55112e-17
713 1 15.4607 77.4166 -5.55112e-17
714 2 154.684 24.6135 -5.55112e-17
715 2 108.173 131.454 -5.55112e-17
716 1 126.289 87.6043 -5.55112e-17
717 1 50.4447 110.635 -5.55112e-17
718 2 56.1153 96.5568 -5.55112e-17
719 1 24.8269 156.902 -5.55112e-17
720 2 33.1645 152.715 -5.55112e-17
721 2 49.3704 206.336 -5.55112e-17
722 2 45.3376 152.801 -5.55112e-17
723 2 212.826 128.855 -5.55112e-17
724 2 16.8924 67.9252 -5.55112e-17
725 2 191.336 75.0516 -5.55112e-17
726 2 217.953 180.727 -5.55112e-17
727 2 17.0207 79.9072 -5.55112e-17
728 1 167.199 77.5903 -5.55112e-17
729 2 189.204 142.502 -5.55112e-17
730 2 184.585 162.226 -5.55112e-17
731 1 193.242 70.6615 -5.55112e-17
732 2 46.5769 141.073 -5.55112e-17
733 2 154.637 189.06 -5.55112e-17
734 2 189.608 208.397 -5.55112e-17
735 2 93.2567 213.92 -5.55112e-17
736 1 218.273 206.595 -5.55112e-17
737 2 109.518 64.1837 -5.55112e-17
738 2 120.951 31.0439 -5.55112e-17
739 2 139.499 121.622 -5.55112e-17
740 2 210.252 65.9162 -5.55112e-17
741 2 191.445 166.851 -5.55112e-17
742 1 91.2223 218.256 -5.55112e-17
743 2 96.1272 126.706 -5.55112e-17
744 1 146.035 44.7734 -5.55112e-17
745 2 193.392 51.8682 -5.55112e-17
746 1 213.378 101.96 -5.55112e-17
747 1 57.7247 112.263 -5.55112e-17
748 2 35.0262 93.6532 -5.55112e-17
749 1 2.45677 203.583 -5.55112e-17
750 1 149.813 110.936 -5.55112e-17
751 1 140.201 95.9419 -5.55112e-17
752 2 10.3957 183.407 -5.55112e-17
753 1 3.36685 1.57681 -5.55112e-17
754 2 62.4375 80.9715 -5.55112e-17
755 1 180.864 121.945 -5.55112e-17
756 2 65.5745 44.0585 -5.55112e-17
757 1 77.9624 74.6503 -5.55112e-17
758 2 154.362 63.7792 -5.55112e-17
759 1 89.188 173.125 -5.55112e-17
760 1 137.434 70.5408 -5.55112e-17
761 2 190.867 91.6987 -5.55112e-17
762 1 12.0075 125.072 -5.55112e-17
763 2 40.2753 102.06 -5.55112e-17
764 2 173.328 169.832 -5.55112e-17
765 1 2.1499 133.75 -5.55112e-17
766 2 104.27 158.078 -5.55112e-17
767 2 191.772 126.258 -5.55112e-17
768 2 82.5022 64.6678 -5.55112e-17
769 2 187.972 177.844 -5.55112e-17
770 1 192.058 185.577 -5.55112e-17
771 1 79.6759 112.165 -5.55112e-17
772 1 109.102 0.552436 -5.55112e-17
773 2 152.438 166.415 -5.55112e-17
774 1 199.608 113.588 -5.55112e-17
775 1 101.004 123.44 -5.55112e-17
776 2 189.438 114.929 -5.55112e-17
777 2 20.1465 9.19791 -5.55112e-17
778 1 167.307 173.801 -5.55112e-17
779 1 4.4355 218.084 -5.55112e-17
780 2 73.4415 76.2436 -5.55112e-17
781 1 30.0719 155.907 -5.55112e-17
782 2 117.354 187.452 -5.55112e-17
783 1 171.946 39.7211 -5.55112e-17
784 2 54.9941 36.969 -5.55112e-17
785 1 205.561 95.0241 -5.55112e-17
786 1 97.2572 32.7717 -5.55112e-17
787 2 28.3344 146.722 -5.55112e-17
788 2 135.962 8.52501 -5.55112e-17
789 2 18.411 154.527 -5.55112e-17
790 2 63.2438 46.1046 -5.55112e-17
791 2 1.15534 52.4735 -5.55112e-17
792 1 209.021 170.322 -5.55112e-17
793 1 89.585 150.098 -5.55112e-17
794 2 213.664 209.712 -5.55112e-17
795 2 25.9521 159.084 -5.55112e-17
796 1 154.445 209.425 -5.55112e-17
797 1 90.1941 71.0647 -5.55112e-17
798 1 24.4337 38.9153 -5.55112e-17
799 2 76.8434 178.118 -5.55112e-17
800 1 2.58941 9.66901 -5.55112e-17
801 2 115.09 135.486 -5.55112e-17
802 1 100.242 12.8476 -5.55112e-17
803 1 196.026 46.3657 -5.55112e-17
804 1 184.697 168.726 -5.55112e-17
805 2 199.551 149.649 -5.55112e-17
806 2 183.868 133.243 -5.55112e-17
807 2 177.446 53.1701 -5.55112e-17
808 2 2.2366 174.481 -5.55112e-17
809 1 85.4609 85.2929 -5.55112e-17
810 2 73.7422 163.127 -5.55112e-17
811 2 127.767 3.73216 -5.55112e-17
812 1 93.605 147.579 -5.55112e-17
813 1 164.79 140.38 -5.55112e-17
814 1 197.969 142.453 -5.55112e-17
815 1 128.809 18.4889 -5.55112e-17
816 1 211.783 112.111 -5.55112e-17
817 2 64.1555 60.9497 -5.55112e-17
818 2 3.5571 7.27141 -5.55112e-17
819 2 198.729 70.6861 -5.55112e-17
820 1 206.958 128.668 -5.55112e-17
821 1 168.232 41.9004 -5.55112e-17
822 2 104.809 204.248 -5.55112e-17
823 1 180.228 124.1 -5.55112e-17
824 1 174.629 161.579 -5.55112e-17
825 1 5.83265 107.598 -5.55112e-17
826 2 188.171 92.9891 -5.55112e-17
827 2 81.4466 184.07 -5.55112e-17
828 1 191.191 79.7825 -5.55112e-17
829 2 120.265 115.694 -5.55112e-17
830 1 57.5497 119.183 -5.55112e-17
831 2 195.03 18.5465 -5.55112e-17
832 2 184.954 48.5464 -5.55112e-17
833 2 120.205 210.046 -5.55112e-17
834 1 123.567 185.859 -5.55112e-17
835 1 212.193 109.514 -5.55112e-17
836 1 141.345 79.8578 -5.55112e-17
837 2 157.096 97.5561 -5.55112e-17
838 2 115.986 103.445 -5.55112e-17
839 1 132.102 208.663 -5.55112e-17
840 2 10.8624 152.473 -5.55112e-17
841 2 146.89 64.0454 -5.55112e-17
842 1 173.797 112.984 -5.55112e-17
843 1 205.28 196.484 -5.55112e-17
844 2 23.7468 20.8525 -5.55112e-17
845 1 26.1964 142.108 -5.55112e-17
846 2 158.348 154.377 -5.55112e-17
847 1 8.59229 92.3109 -5.55112e-17
848 2 43.9727 79.3846 -5.55112e-17
849 1 77.0476 17.6686 -5.55112e-17
850 2 106.642 20.4014 -5.55112e-17
851 2 18.5071 43.9268 -5.55112e-17
852 1 130.043 183.488 -5.55112e-17
853 1 125.167 168.248 -5.55112e-17
854 2 48.7967 136.301 -5.55112e-17
855 2 206.08 159.69 -5.55112e-17