ITEM: TIMESTEP
0
ITEM: NUMBER OF ATOMS
7200
ITEM: BOX BOUNDS xy xz yz pp pp pp
0.0000000000000000e+00 2.1900000000000000e+02 0.0000000000000000e+00
0.0000000000000000e+00 2.1900000000000000e+02 0.0000000000000000e+00
-3.6499999999999999e-01 3.6499999999999999e-01 0.0000000000000000e+00
ITEM: ATOMS id type x y z
1 1 209.478 28.6465 -5.55112e-17
2 2 207.339 75.97 -5.55112e-17
3 2 214.392 174.701 -5.55112e-17
4 1 124.988 207.811 -5.55112e-17
5 1 96.4773 27.2059 -5.55112e-17
6 1 45.806 172.638 -5.55112e-17
7 2 184.71 93.7406 -5.55112e-17
8 2 131.086 134.169 -5.55112e-17
9 1 125.577 56.4407 -5.55112e-17
10 2 144.519 21.4769 -5.55112e-17
11 2 199.449 62.5645 -5.55112e-17
12 1 186.753 178.553 -5.55112e-17
13 2 167.554 171.938 -5.55112e-17
14 1 21.8282 67.9811 -5.55112e-17
15 2 212.005 145.389 -5.55112e-17
16 2 93.6374 122.743 -5.55112e-17
17 1 215.536 204.829 -5.55112e-17
18 2 2.17143 44.0418 -5.55112e-17
19 1 141.689 117.566 -5.55112e-17
20 1 174.786 163.968 -5.55112e-17
21 1 151.019 143.089 -5.55112e-17
22 2 205.794 218.467 -5.55112e-17
23 2 53.3971 42.0173 -5.55112e-17
24 2 128.226 71.4726 -5.55112e-17
25 2 56.0649 205.616 -5.55112e-17
26 2 129.803 171.046 -5.55112e-17
27 1 113.405 52.1267 -5.55112e-17
28 2 22.6141 32.0205 -5.55112e-17
29 2 26.7318 73.0984 -5.55112e-17
30 2 109.004 132.172 -5.55112e-17
31 2 33.9209 40.4639 -5.55112e-17
32 1 164.39 150.824 -5.55112e-17
33 2 114.702 37.7585 -5.55112e-17
34 2 59.012 86.5022 -5.55112e-17
35 2 95.3072 185.634 -5.55112e-17
36 1 121.058 138.796 -5.55112e-17
37 1 170.776 139.417 -5.55112e-17
38 2 189.106 190.431 -5.55112e-17
39 1 47.8605 214.429 -5.55112e-17
40 2 82.834 71.0796 -5.55112e-17
41 1 63.8923 216.565 -5.55112e-17
42 1 136.854 169.767 -5.55112e-17
43 1 9.75093 60.6552 -5.55112e-17
44 1 188.989 180.896 -5.55112e-17
45 2 208.84 128.791 -5.55112e-17
46 1 159.769 204.771 -5.55112e-17
47 2 54.5382 4.74335 -5.55112e-17
48 2 197.028 104.068 -5.55112e-17
49 1 189.32 131.314 -5.55112e-17
50 2 58.994 178.749 -5.55112e-17
51 1 186.719 196.405 -5.55112e-17
52 1 34.7878 181.826 -5.55112e-17
53 2 150.379 190.078 -5.55112e-17
54 1 197.344 112.267 -5.55112e-17
55 2 22.9619 5.23596 -5.55112e-17
56 1 211.814 52.739 -5.55112e-17
57 2 195.952 183.03 -5.55112e-17
58 1 61.0937 40.0633 -5.55112e-17
59 1 95.1991 124.706 -5.55112e-17
60 2 218.756 168.083 -5.55112e-17
61 1 9.28559 45.6076 -5.55112e-17
62 1 69.279 47.0348 -5.55112e-17
63 2 215.701 76.0884 -5.55112e-17
64 1 82.793 140.425 -5.55112e-17
65 2 80.8324 65.01 -5.55112e-17
66 2 41.3523 56.1971 -5.55112e-17
67 2 51.1894 209.039 -5.55112e-17
68 1 105.458 111.398 -5.55112e-17
69 2 2.85456 125.432 -5.55112e-17
70 1 129.633 96.6693 -5.55112e-17
71 1 10.3182 118.406 -5.55112e-17
72 2 13.1197 174.483 -5.55112e-17
73 2 114.784 197.246 -5.55112e-17
74 2 98.9414 215.083 -5.55112e-17
75 1 140.694 62.3984 -5.55112e-17
76 2 72.3461 113.559 -5.55112e-17
77 2 113.283 170.954 -5.55112e-17
78 1 125.653 43.7755 -5.55112e-17
79 2 81.1501 130.051 -5.55112e-17
80 1 79.6568 110.7 -5.55112e-17
81 1 92.9077 98.6094 -5.55112e-17
82 1 178.789 144.195 -5.55112e-17
83 1 173.073 53.5084 -5.55112e-17
84 2 42.0413 210.521 -5.55112e-17
85 2 21.1587 185.75 -5.55112e-17
86 2 36.4573 120.612 -5.55112e-17
87 2 174.175 148.91 -5.55112e-17
88 1 179.655 58.1445 -5.55112e-17
89 2 103.596 192.11 -5.55112e-17
90 2 18.4626 34.0753 -5.55112e-17
91 2 90.1384 153.381 -5.55112e-17
92 1 210.348 51.206 -5.55112e-17
93 2 132.461 62.961 -5.55112e-17
94 2 16.6969 50.0962 -5.55112e-17
95 1 58.3322 61.6987 -5.55112e-17
96 2 106.298 153.563 -5.55112e-17
97 2 112.419 218.959 -5.55112e-17
98 2 85.7133 25.2229 -5.55112e-17
99 1 79.7748 148.18 -5.55112e-17
100 2 193.825 31.9622 -5.55112e-17
101 1 151.219 133.71 -5.55112e-17
102 1 149.635 12.1181 -5.55112e-17
103 2 205.099 124.252 -5.55112e-17
104 2 17.0012 8.51724 -5.55112e-17
105 1 118.492 206.198 -5.55112e-17
106 1 6.71113 132.167 -5.55112e-17
107 1 2.14895 114.225 -5.55112e-17
108 1 64.2774 182.496 -5.55112e-17
109 2 16.3741 162.122 -5.55112e-17
110 2 164.37 96.4702 -5.55112e-17
111 1 206.821 208.981 -5.55112e-17
112 2 21.3056 131.98 -5.55112e-17
113 1 179.703 38.6032 -5.55112e-17
114 1 33.7827 120.501 -5.55112e-17
115 2 133.859 214.765 -5.55112e-17
116 2 12.1514 86.0601 -5.55112e-17
117 1 119.846 31.4162 -5.55112e-17
118 1 106.002 77.887 -5.55112e-17
119 2 127.925 64.3612 -5.55112e-17
120 2 172.409 141.21 -5.55112e-17
121 1 179.377 147.978 -5.55112e-17
122 2 142.142 215.723 -5.55112e-17
123 2 210.681 199.118 -5.55112e-17
124 1 156.308 128.744 -5.55112e-17
125 1 178.027 124.788 -5.55112e-17
126 2 154.884 196.344 -5.55112e-17
127 2 116.34 177.011 -5.55112e-17
128 1 37.1098 194.606 -5.55112e-17
129 1 31.023 26.5251 -5.55112e-17
130 2 139.931 1.08475 -5.55112e-17
131 1 114.839 119.148 -5.55112e-17
132 1 54.5013 58.1009 -5.55112e-17
133 1 39.8912 134.466 -5.55112e-17
134 1 64.4975 139.892 -5.55112e-17
135 2 158.973 39.9674 -5.55112e-17
136 1 88.4561 28.6261 -5.55112e-17
137 1 30.763 75.2948 -5.55112e-17
138 2 29.8417 56.8838 -5.55112e-17
139 1 100.237 137.944 -5.55112e-17
140 1 52.0626 48.3959 -5.55112e-17
141 1 118.236 110.402 -5.55112e-17
142 1 130.332 174.092 -5.55112e-17
143 1 71.8644 124.951 -5.55112e-17
144 1 210.49 206.826 -5.55112e-17
145 2 194.034 189.358 -5.55112e-17
146 1 16.0058 103.556 -5.55112e-17
147 2 122.492 34.888 -5.55112e-17
148 1 46.5396 120.05 -5.55112e-17
149 1 152.93 43.499 -5.55112e-17
150 2 4.24103 177.119 -5.55112e-17
151 1 154.592 95.5979 -5.55112e-17
152 1 111.027 205.764 -5.55112e-17
153 2 200.142 139.051 -5.55112e-17
154 1 7.54317 18.36 -5.55112e-17
155 2 132.278 25.7134 -5.55112e-17
156 2 76.0754 78.3145 -5.55112e-17
157 2 2.9734 164.197 -5.55112e-17
158 2 11.2494 196.978 -5.55112e-17
159 2 202.329 26.5204 -5.55112e-17
160 2 0.445861 149.751 -5.55112e-17
161 2 94.5388 127.351 -5.55112e-17
162 1 175.746 146.785 -5.55112e-17
163 1 37.9313 67.7416 -5.55112e-17
164 2 12.9333 185.801 -5.55112e-17
165 1 183.183 199.444 -5.55112e-17
166 2 73.5056 18.1781 -5.55112e-17
167 1 74.9219 198.725 -5.55112e-17
168 1 77.6832 41.6764 -5.55112e-17
169 2 49.5443 137.512 -5.55112e-17
170 1 43.611 49.3949 -5.55112e-17
171 1 1.91802 136.052 -5.55112e-17
172 1 157.614 38.0845 -5.55112e-17
173 1 202.911 189.892 -5.55112e-17
174 2 144.248 207.364 -5.55112e-17
175 2 175.838 33.6986 -5.55112e-17
176 1 211.592 84.9644 -5.55112e-17
177 2 29.8158 43.4615 -5.55112e-17
178 1 202.788 58.1939 -5.55112e-17
179 2 65.5229 137.603 -5.55112e-17
180 1 48.3492 36.0093 -5.55112e-17
181 1 198.384 52.1506 -5.55112e-17
182 1 138.633 21.503 -5.55112e-17
183 1 10.2591 90.8567 -5.55112e-17
184 2 105.552 189.427 -5.55112e-17
185 2 77.0381 126.993 -5.55112e-17
186 2 91.7542 75.4846 -5.55112e-17
187 2 36.6527 125.606 -5.55112e-17
188 2 200.424 103.969 -5.55112e-17
189 1 178.476 129.841 -5.55112e-17
190 1 209.673 11.1309 -5.55112e-17
191 2 159.248 75.0051 -5.55112e-17
192 2 140.748 127.236 -5.55112e-17
193 1 203.18 182.008 -5.55112e-17
194 1 36.2146 217.865 -5.55112e-17
195 2 141.865 177.995 -5.55112e-17
196 1 61.3043 87.5744 -5.55112e-17
197 2 148.791 144.158 -5.55112e-17
198 2 41.2985 105.765 -5.55112e-17
199 2 214.244 120.862 -5.55112e-17
200 2 159.715 110.521 -5.55112e-17
201 2 99.417 33.1954 -5.55112e-17
202 1 21.0391 85.7258 -5.55112e-17
203 1 37.304 49.3462 -5.55112e-17
204 2 205.911 103.954 -5.55112e-17
205 2 158.01 113.152 -5.55112e-17
206 2 69.3482 195.133 -5.55112e-17
207 1 145.603 110.32 -5.55112e-17
208 2 151.506 16.682 -5.55112e-17
209 2 58.0327 67.0265 -5.55112e-17
210 1 170.703 61.1905 -5.55112e-17
211 1 104.168 114.304 -5.55112e-17
212 1 31.0232 64.5771 -5.55112e-17
213 1 9.7794 192.495 -5.55112e-17
214 2 97.0604 119.449 -5.55112e-17
215 1 31.9908 212.878 -5.55112e-17
216 1 151.624 80.7009 -5.55112e-17
217 1 203.93 176.521 -5.55112e-17
218 2 13.7585 177.617 -5.55112e-17
219 2 118.342 211.992 -5.55112e-17
220 1 131.298 176.036 -5.55112e-17
221 2 83.2758 15.312 -5.55112e-17
222 1 77.5528 6.16328 -5.55112e-17
223 1 61.8933 48.1837 -5.55112e-17
224 2 45.6832 11.1847 -5.55112e-17
225 2 186.851 140.589 -5.55112e-17
226 1 21.0674 203.754 -5.55112e-17
227 2 202.365 136.516 -5.55112e-17
228 2 214.842 166.817 -5.55112e-17
229 1 8.45073 47.4938 -5.55112e-17
230 1 194.143 23.3778 -5.55112e-17
231 2 30.673 40.7722 -5.55112e-17
232 1 49.4202 67.6319 -5.55112e-17
233 2 135.412 176.545 -5.55112e-17
234 1 23.6847 216.664 -5.55112e-17
235 1 25.2625 137.419 -5.55112e-17
236 2 192.883 128.277 -5.55112e-17
237 2 3.2319 120.158 -5.55112e-17
238 2 82.2578 40.5667 -5.55112e-17
239 1 52.5116 101.297 -5.55112e-17
240 1 83.0164 76.0682 -5.55112e-17
241 2 70.9595 210.845 -5.55112e-17
242 1 82.9024 24.5051 -5.55112e-17
243 2 168.587 77.5696 -5.55112e-17
244 2 192.425 6.52078 -5.55112e-17
245 1 136.768 167.114 -5.55112e-17
246 2 117.516 43.4567 -5.55112e-17
247 2 17.1442 177.791 -5.55112e-17
248 1 153.627 45.8043 -5.55112e-17
249 1 31.4437 120.087 -5.55112e-17
250 1 77.305 101.756 -5.55112e-17
251 2 211.853 28.2915 -5.55112e-17
252 1 146.438 102.496 -5.55112e-17
253 2 141.968 8.70473 -5.55112e-17
254 2 34.4499 207.263 -5.55112e-17
255 2 12.1615 20.5563 -5.55112e-17
256 1 6.20463 104.567 -5.55112e-17
257 2 182.452 86.7379 -5.55112e-17
258 1 144.934 53.2377 -5.55112e-17
259 2 112.713 143.71 -5.55112e-17
260 1 111.432 193.595 -5.55112e-17
261 2 18.692 133.39 -5.55112e-17
262 2 10.998 171.608 -5.55112e-17
263 2 185.676 212.062 -5.55112e-17
264 1 58.6082 30.658 -5.55112e-17
265 1 42.9052 155.79 -5.55112e-17
266 1 154.63 139.38 -5.55112e-17
267 2 26.5972 113.167 -5.55112e-17
268 1 178.791 198.112 -5.55112e-17
269 2 25.9846 5.76266 -5.55112e-17
270 2 176.048 122.837 -5.55112e-17
271 2 144.126 149.612 -5.55112e-17
272 1 210.132 135.717 -5.55112e-17
273 1 82.4212 211.459 -5.55112e-17
274 1 35.353 75.6384 -5.55112e-17
275 1 170.58 29.3652 -5.55112e-17
276 1 199.713 119.249 -5.55112e-17
277 1 68.9422 203.087 -5.55112e-17
278 2 109.753 9.78663 -5.55112e-17
279 2 55.5463 198.634 -5.55112e-17
280 1 139.373 179.238 -5.55112e-17
281 2 128.973 102.033 -5.55112e-17
282 2 89.0561 209.552 -5.55112e-17
283 2 62.2817 37.8078 -5.55112e-17
284 1 175.678 20.0298 -5.55112e-17
285 1 82.2173 202.573 -5.55112e-17
286 2 16.9013 31.7639 -5.55112e-17
287 2 197.312 10.8789 -5.55112e-17
288 1 143.071 212.833 -5.55112e-17
289 2 173.982 22.2061 -5.55112e-17
290 1 152.938 0.164239 -5.55112e-17
291 2 168.863 216.017 -5.55112e-17
292 1 95.8432 78.719 -5.55112e-17
293 1 106.105 141.047 -5.55112e-17
294 1 57.5864 32.7464 -5.55112e-17
295 2 10.9731 12.7788 -5.55112e-17
296 1 112.697 30.6044 -5.55112e-17
297 1 38.5192 11.2756 -5.55112e-17
298 2 212.849 65.0474 -5.55112e-17
299 1 21.2514 91.3621 -5.55112e-17
300 2 35.0617 31.8026 -5.55112e-17
301 2 84.4439 33.604 -5.55112e-17
302 2 205.389 58.6496 -5.55112e-17
303 1 136.005 145.218 -5.55112e-17
304 1 49.4919 7.21346 -5.55112e-17
305 1 96.7845 71.239 -5.55112e-17
306 2 169.898 145.965 -5.55112e-17
307 2 216.816 122.769 -5.55112e-17
308 2 29.8596 207.916 -5.55112e-17
309 1 156.592 16.7626 -5.55112e-17
310 1 27.7591 111.057 -5.55112e-17
311 1 70.9359 19.6652 -5.55112e-17
312 2 102.359 73.566 -5.55112e-17
313 2 60.5723 6.59714 -5.55112e-17
314 1 143.198 100.067 -5.55112e-17
315 2 28.554 150.041 -5.55112e-17
316 1 182.701 72.2319 -5.55112e-17
317 1 142.879 69.8698 -5.55112e-17
318 1 31.7891 129.384 -5.55112e-17
319 2 129.641 24.7691 -5.55112e-17
320 1 4.43053 114.836 -5.55112e-17
321 1 65.449 37.6129 -5.55112e-17
322 1 84.2118 142.49 -5.55112e-17
323 2 178.498 93.2059 -5.55112e-17
324 2 108.033 176.159 -5.55112e-17
325 2 115.9 139.348 -5.55112e-17
326 1 51.3304 197.033 -5.55112e-17
327 1 143.776 95.1559 -5.55112e-17
328 2 174.06 68.8368 -5.55112e-17
329 2 117.798 179.608 -5.55112e-17
330 2 84.7509 5.44657 -5.55112e-17
331 2 48.3534 154.617 -5.55112e-17
332 2 124.003 113.934 -5.55112e-17
333 2 89.5372 35.6785 -5.55112e-17
334 2 91.7286 49.0948 -5.55112e-17
335 1 52.7778 191.725 -5.55112e-17
336 2 96.8103 86.2815 -5.55112e-17
337 2 71.8987 216.061 -5.55112e-17
338 1 76.3088 32.7123 -5.55112e-17
339 2 133.487 5.49104 -5.55112e-17
340 2 60.9912 198.778 -5.55112e-17
341 2 173.456 217.118 -5.55112e-17
342 2 54.7129 212.25 -5.55112e-17
343 2 18.5182 168.922 -5.55112e-17
344 1 39.7813 40.3053 -5.55112e-17
345 2 137.969 107.31 -5.55112e-17
346 2 97.2768 187.774 -5.55112e-17
347 1 63.4178 187.318 -5.55112e-17
348 1 64.9772 27.3637 -5.55112e-17
349 2 6.30255 120.883 -5.55112e-17
350 2 124.402 91.9477 -5.55112e-17
351 1 101.842 178.848 -5.55112e-17
352 1 217.18 145.39 -5.55112e-17
353 2 23.2903 135.614 -5.55112e-17
354 2 191.534 54.1798 -5.55112e-17
355 1 118.99 169.215 -5.55112e-17
356 2 136.258 77.3608 -5.55112e-17
357 1 164.414 81.2723 -5.55112e-17
358 1 205.584 142.77 -5.55112e-17
359 1 182.524 61.6638 -5.55112e-17
360 1 53.8214 196.491 -5.55112e-17
361 2 202.117 112.32 -5.55112e-17
362 2 180.808 209.473 -5.55112e-17
363 1 7.54767 153.74 -5.55112e-17
364 2 205.255 206.846 -5.55112e-17
365 1 129.963 44.7831 -5.55112e-17
366 1 74.5256 195.798 -5.55112e-17
367 1 177.379 10.7785 -5.55112e-17
368 1 112.742 82.938 -5.55112e-17
369 2 17.3765 218.179 -5.55112e-17
370 1 1.18598 111.727 -5.55112e-17
371 2 148.404 116.665 -5.55112e-17
372 1 132.616 81.6518 -5.55112e-17
373 2 120.969 0.0723092 -5.55112e-17
374 2 168.359 16.7988 -5.55112e-17
375 1 35.0635 122.763 -5.55112e-17
376 1 182.09 89.359 -5.55112e-17
377 2 109.881 64.5317 -5.55112e-17
378 2 98.9062 164.359 -5.55112e-17
379 2 155.688 58.3871 -5.55112e-17
380 1 70.0702 37.0396 -5.55112e-17
381 1 120.513 19.7747 -5.55112e-17
382 1 171.624 65.2914 -5.55112e-17
383 1 160.83 148.663 -5.55112e-17
384 2 140.736 49.8577 -5.55112e-17
385 1 82.8491 43.4633 -5.55112e-17
386 2 169.333 80.1338 -5.55112e-17
387 1 208.914 99.8611 -5.55112e-17
388 1 150.002 103.132 -5.55112e-17
389 2 2.73261 109.176 -5.55112e-17
390 1 72.6654 90.4672 -5.55112e-17
391 1 155.247 143.509 -5.55112e-17
392 2 56.9 136.428 -5.55112e-17
393 2 55.9659 118.616 -5.55112e-17
394 1 207.892 139.207 -5.55112e-17
395 1 113.078 138.291 -5.55112e-17
396 2 173.259 29.37 -5.55112e-17
397 1 149.376 52.4655 -5.55112e-17
398 2 131.266 109.675 -5.55112e-17
399 2 105.949 133.778 -5.55112e-17
400 2 54.0546 28.2408 -5.55112e-17
401 2 24.197 68.9197 -5.55112e-17
402 1 19.874 105.27 -5.55112e-17
403 1 186.301 215.054 -5.55112e-17
404 2 51.9993 147.955 -5.55112e-17
405 1 40.98 203.196 -5.55112e-17
406 2 68.3548 116.309 -5.55112e-17
407 1 201.198 141.426 -5.55112e-17
408 1 145.584 166.43 -5.55112e-17
409 2 35.0385 177.101 -5.55112e-17
410 2 183.205 99.1566 -5.55112e-17
411 1 13.1606 122.892 -5.55112e-17
412 1 194 210.28 -5.55112e-17
413 1 57.7236 203.396 -5.55112e-17
414 2 85.2279 184.131 -5.55112e-17
415 1 93.8796 103.503 -5.55112e-17
416 1 66.8364 77.3795 -5.55112e-17
417 2 57.0924 21.7059 -5.55112e-17
418 2 186.432 64.6469 -5.55112e-17
419 2 119.711 146.941 -5.55112e-17
420 2 181.972 5.52206 -5.55112e-17
421 1 61.7761 1.77665 -5.55112e-17
422 1 84.9474 181.798 -5.55112e-17
423 2 95.6456 52.2773 -5.55112e-17
424 2 205.449 138.169 -5.55112e-17
425 2 75.0157 15.7266 -5.55112e-17
426 1 81.9558 132.696 -5.55112e-17
427 2 84.7422 62.0933 -5.55112e-17
428 1 39.0806 91.8738 -5.55112e-17
429 2 141.446 133.258 -5.55112e-17
430 2 69.249 60.2189 -5.55112e-17
431 1 75.8669 63.9129 -5.55112e-17
432 2 15.5675 216.069 -5.55112e-17
433 1 127.069 61.732 -5.55112e-17
434 1 129.095 116.13 -5.55112e-17
435 1 159.111 54.4815 -5.55112e-17
436 2 87.9887 169.558 -5.55112e-17
437 2 73.2855 64.9425 -5.55112e-17
438 2 135.878 187.036 -5.55112e-17
439 2 213.086 102.13 -5.55112e-17
440 2 193.981 192.606 -5.55112e-17
441 1 162.178 7.00626 -5.55112e-17
442 1 133.177 31.6626 -5.55112e-17
443 2 135.055 67.0163 -5.55112e-17
444 1 179.277 185.745 -5.55112e-17
445 1 168.293 60.1688 -5.55112e-17
446 2 8.3782 208.974 -5.55112e-17
447 2 198.443 46.6064 -5.55112e-17
448 2 92.6665 169.035 -5.55112e-17
449 1 89.2932 204.148 -5.55112e-17
450 1 181.964 185.247 -5.55112e-17
451 1 120.825 77.4708 -5.55112e-17
452 2 198.134 216.385 -5.55112e-17
453 1 173.932 169.194 -5.55112e-17
454 1 49.892 211.389 -5.55112e-17
455 2 208.295 180.527 -5.55112e-17
456 1 32.7767 16.3949 -5.55112e-17
457 2 217.851 171.073 -5.55112e-17
458 2 213.769 128.999 -5.55112e-17
459 2 172.8 50.9072 -5.55112e-17
460 1 70.6885 213.719 -5.55112e-17
461 1 90.0713 62.9331 -5.55112e-17
462 1 211.546 55.1297 -5.55112e-17
463 2 60.0613 129.911 -5.55112e-17
464 2 39.3196 94.5477 -5.55112e-17
465 1 196.054 190.725 -5.55112e-17
466 2 204.321 128.526 -5.55112e-17
467 2 71.7558 202.781 -5.55112e-17
468 2 64.4872 70.2096 -5.55112e-17
469 2 66.8125 1.35243 -5.55112e-17
470 2 156.352 93.7384 -5.55112e-17
471 2 110.616 99.4316 -5.55112e-17
472 2 14.7931 121.095 -5.55112e-17
473 2 186.722 203.444 -5.55112e-17
474 2 39.8022 187.404 -5.55112e-17
475 1 2.24127 76.4699 -5.55112e-17
476 2 138.142 206.384 -5.55112e-17
477 1 15.4088 209.355 -5.55112e-17
478 1 96.271 0.30662 -5.55112e-17
479 2 81.1389 34.0482 -5.55112e-17
480 1 54.5675 89.8217 -5.55112e-17
481 1 147.992 124.473 -5.55112e-17
482 2 177.483 43.8404 -5.55112e-17
483 1 70.1328 85.1178 -5.55112e-17
484 1 103.513 5.40288 -5.55112e-17
485 2 75.3848 46.1687 -5.55112e-17
486 1 32.2708 175.912 -5.55112e-17
487 1 134.708 171.208 -5.55112e-17
488 1 159.011 207.186 -5.55112e-17
489 1 29.4346 51.1177 -5.55112e-17
490 1 101.839 123.984 -5.55112e-17
491 1 82.7413 180.323 -5.55112e-17
492 2 43.3042 218.894 -5.55112e-17
493 1 97.0759 160.037 -5.55112e-17
494 2 28.368 65.1792 -5.55112e-17
495 1 195.261 126.326 -5.55112e-17
496 1 128.847 160.728 -5.55112e-17
497 1 52.2664 99.2931 -5.55112e-17
498 2 19.5212 69.8429 -5.55112e-17
499 2 3.51865 24.1128 -5.55112e-17
500 2 139.219 176.164 -5.55112e-17
501 2 8.68658 34.4658 -5.55112e-17
502 2 186.138 91.141 -5.55112e-17
503 2 66.2272 210.135 -5.55112e-17
504 2 189.487 208.098 -5.55112e-17
505 2 32.4524 187.238 -5.55112e-17
506 1 1.2266 24.7568 -5.55112e-17
507 2 215.943 198.097 -5.55112e-17
508 1 17.5395 122.042 -5.55112e-17
509 1 34.0826 21.5156 -5.55112e-17
510 1 185.916 113.666 -5.55112e-17
511 2 60.0991 140.229 -5.55112e-17
512 1 20.3956 14.9156 -5.55112e-17
513 2 165.121 160.742 -5.55112e-17
514 2 154.213 170.649 -5.55112e-17
515 1 162.897 144.122 -5.55112e-17
516 2 200.67 121.709 -5.55112e-17
517 1 54.9094 137.933 -5.55112e-17
518 2 131.475 167.748 -5.55112e-17
519 1 153.455 93.498 -5.55112e-17
520 2 126.015 167.935 -5.55112e-17
521 2 148.535 194.424 -5.55112e-17
522 1 203.332 174.493 -5.55112e-17
523 1 216.021 55.8967 -5.55112e-17
524 2 108.164 107.414 -5.55112e-17
525 2 77.9316 183.085 -5.55112e-17
526 2 116.313 28.7642 -5.55112e-17
527 1 115.517 187.817 -5.55112e-17
528 1 154.25 204.75 -5.55112e-17
529 2 120.151 141.558 -5.55112e-17
530 2 149.793 26.9399 -5.55112e-17
531 2 85.6109 164.804 -5.55112e-17
532 1 153.846 70.4521 -5.55112e-17
533 2 60.8257 203.934 -5.55112e-17
534 1 128.134 218.017 -5.55112e-17
535 1 153.497 27.9038 -5.55112e-17
536 2 157.563 25.5721 -5.55112e-17
537 1 155.87 154.894 -5.55112e-17
538 1 212.833 164.842 -5.55112e-17
539 2 132.867 119.877 -5.55112e-17
540 1 25.6719 102.057 -5.55112e-17
541 1 88.6845 215.745 -5.55112e-17
542 1 35.0037 91.5475 -5.55112e-17
543 2 169.35 210.49 -5.55112e-17
544 1 187.707 93.4495 -5.55112e-17
545 1 155.617 98.045 -5.55112e-17
546 2 40.2577 62.334 -5.55112e-17
547 1 69.8275 207.749 -5.55112e-17
548 1 28.0467 188.588 -5.55112e-17
549 2 82.8901 89.8254 -5.55112e-17
550 2 164.348 4.5061 -5.55112e-17
551 2 161.824 90.1328 -5.55112e-17
552 1 59.017 134.551 -5.55112e-17
553 2 1.51581 177.845 -5.55112e-17
554 2 99.7125 183.821 -5.55112e-17
555 2 134.662 97.1161 -5.55112e-17
556 1 169.716 66.2388 -5.55112e-17
557 1 73.7966 0.702905 -5.55112e-17
558 1 71.7578 120.836 -5.55112e-17
559 2 9.05641 104.161 -5.55112e-17
560 2 158.19 127.119 -5.55112e-17
561 2 45.8726 117.002 -5.55112e-17
562 2 111.413 107.657 -5.55112e-17
563 1 207.443 144.808 -5.55112e-17
564 2 132.707 53.7769 -5.55112e-17
565 2 4.75279 134.242 -5.55112e-17
566 2 26.1034 131.128 -5.55112e-17
567 1 118.067 156.371 -5.55112e-17
568 1 70.4116 41.5941 -5.55112e-17
569 2 212.799 112.842 -5.55112e-17
570 2 107.729 53.9536 -5.55112e-17
571 2 144.411 176.508 -5.55112e-17
572 1 105.633 58.887 -5.55112e-17
573 2 97.4455 7.83382 -5.55112e-17
574 2 174.177 156.804 -5.55112e-17
575 1 169.132 9.19461 -5.55112e-17
576 1 16.65 81.2336 -5.55112e-17
577 1 68.9669 106.536 -5.55112e-17
578 1 106.308 50.1668 -5.55112e-17
579 2 212.12 148.399 -5.55112e-17
580 1 177.774 170.104 -5.55112e-17
581 1 18.745 82.3181 -5.55112e-17
582 2 129.724 192.617 -5.55112e-17
583 2 92.2674 150.852 -5.55112e-17
584 2 123.834 48.9141 -5.55112e-17
585 1 66.703 114.254 -5.55112e-17
586 1 16.7961 116.746 -5.55112e-17
587 1 41.6511 85.0122 -5.55112e-17
588 2 133.836 100.324 -5.55112e-17
589 1 35.7921 171.778 -5.55112e-17
590 2 64.9097 17.6937 -5.55112e-17
591 2 212.086 44.2118 -5.55112e-17
592 1 212.274 25.5273 -5.55112e-17
593 1 191.139 188.094 -5.55112e-17
594 1 39.9815 182.454 -5.55112e-17
595 1 65.2113 75.3084 -5.55112e-17
596 2 218.26 175.921 -5.55112e-17
597 2 60.9066 119.34 -5.55112e-17
598 2 57.8015 146.6 -5.55112e-17
599 2 71.0289 139.476 -5.55112e-17
600 2 107.734 170.809 -5.55112e-17
601 1 4.65154 204.283 -5.55112e-17
602 1 36.8738 93.0832 -5.55112e-17
603 2 169.043 2.57543 -5.55112e-17
604 1 133.522 134.989 -5.55112e-17
605 2 171.41 131.412 -5.55112e-17
606 2 206.811 215.685 -5.55112e-17
607 2 27.2818 52.3626 -5.55112e-17
608 2 52.2309 142.364 -5.55112e-17
609 1 69.841 49.1395 -5.55112e-17
610 2 128.469 108.088 -5.55112e-17
611 1 86.4959 121.904 -5.55112e-17
612 1 64.6554 101.129 -5.55112e-17
613 2 207.706 153.401 -5.55112e-17
614 1 34.543 8.50015 -5.55112e-17
615 1 63.4335 213.813 -5.55112e-17
616 2 55.1571 175.954 -5.55112e-17
617 1 123.64 4.25162 -5.55112e-17
618 1 124.849 182.849 -5.55112e-17
619 1 214.615 141.367 -5.55112e-17
620 2 59.517 71.4227 -5.55112e-17
621 2 68.142 171.165 -5.55112e-17
622 2 197.767 26.2904 -5.55112e-17
623 2 67.5549 41.6705 -5.55112e-17
624 1 137.174 150.054 -5.55112e-17
625 2 75.4497 51.2222 -5.55112e-17
626 1 27.2131 23.7311 -5.55112e-17
627 2 145.811 50.7097 -5.55112e-17
628 1 14.7761 92.0064 -5.55112e-17
629 1 116.66 86.0669 -5.55112e-17
630 2 108.704 41.9886 -5.55112e-17
631 2 21.64 179.822 -5.55112e-17
632 2 181.379 213.942 -5.55112e-17
633 2 122.204 129.181 -5.55112e-17
634 2 112.667 203.415 -5.55112e-17
635 2 45.306 205.892 -5.55112e-17
636 1 203.788 130.971 -5.55112e-17
637 1 209.896 106.775 -5.55112e-17
638 1 180.587 91.0184 -5.55112e-17
639 2 147.143 17.0858 -5.55112e-17
640 2 106.951 113.557 -5.55112e-17
641 1 208.367 66.1533 -5.55112e-17
642 2 75.8033 160.162 -5.55112e-17
643 1 156.919 208.247 -5.55112e-17
644 2 136.809 128.44 -5.55112e-17
645 2 216.148 37.3759 -5.55112e-17
646 1 107.976 75.5982 -5.55112e-17
647 2 147.039 20.0919 -5.55112e-17
648 2 42.4134 213.761 -5.55112e-17
649 1 197.811 64.5441 -5.55112e-17
650 1 29.938 190.701 -5.55112e-17
651 1 131.909 35.8368 -5.55112e-17
652 2 134.954 121.93 -5.55112e-17
653 2 139.832 59.7053 -5.55112e-17
654 1 178.715 188.019 -5.55112e-17
655 1 62.8683 205.655 -5.55112e-17
656 1 171.534 188.166 -5.55112e-17
657 1 133.254 116.491 -5.55112e-17
658 2 126.602 13.4194 -5.55112e-17
659 2 138.529 140.239 -5.55112e-17
660 1 9.64027 10.7474 -5.55112e-17
661 2 21.6708 7.81398 -5.55112e-17
662 2 41.8327 80.3039 -5.55112e-17
663 1 63.5448 105.51 -5.55112e-17
664 1 71.8556 34.422 -5.55112e-17
665 1 188.661 53.7439 -5.55112e-17
666 1 80.5902 76.3443 -5.55112e-17
667 1 80.1022 69.6074 -5.55112e-17
668 1 211.708 123.087 -5.55112e-17
669 1 215.448 68.7332 -5.55112e-17
670 2 71.1716 97.3636 -5.55112e-17
671 1 140.56 108.319 -5.55112e-17
672 1 2.78305 38.94 -5.55112e-17
673 2 17.4721 2.99467 -5.55112e-17
674 2 113.32 140.797 -5.55112e-17
675 2 144.807 104.809 -5.55112e-17
676 1 70.4818 136.732 -5.55112e-17
677 2 2.71181 17.189 -5.55112e-17
678 1 64.2939 2.4806 -5.55112e-17
679 1 153.861 16.816 -5.55112e-17
680 2 43.7123 28.0285 -5.55112e-17
681 1 114.062 121.419 -5.55112e-17
682 1 82.0487 195.068 -5.55112e-17
683 2 76.1842 66.6074 -5.55112e-17
684 1 161.709 170.753 -5.55112e-17
685 1 151.659 85.338 -5.55112e-17
686 1 181.523 56.2103 -5.55112e-17
687 1 38.2927 96.9804 -5.55112e-17
688 1 201.738 165.376 -5.55112e-17
689 2 169.842 162.655 -5.55112e-17
690 1 105.301 138.963 -5.55112e-17
691 2 212.9 75.0397 -5.55112e-17
692 2 196.473 177.668 -5.55112e-17
693 1 130.132 27.6173 -5.55112e-17
694 2 155.021 217.711 -5.55112e-17
695 2 51.1134 0.370985 -5.55112e-17
696 2 144.243 200.703 -5.55112e-17
697 1 31.8899 206.496 -5.55112e-17
698 2 29.9017 24.2638 -5.55112e-17
699 1 139.426 158.959 -5.55112e-17
700 2 110.247 145.404 -5.55112e-17
701 2 141.929 104.028 -5.55112e-17
702 1 208.308 133.739 -5.55112e-17
703 1 105.143 14.8082 -5.55112e-17
704 1 78.9401 78.4328 -5.55112e-17
705 1 149.677 163.181 -5.55112e-17
706 1 64.2438 115.337 -5.55112e-17
707 1 191.512 154.221 -5.55112e-17
708 2 123.909 163.227 -5.55112e-17
709 1 56.6526 201.293 -5.55112e-17
710 2 115.645 211.043 -5.55112e-17
711 2 50.8196 109.524 -5.55112e-17
712 1 55.6167 10.2365 -5.55112e-17
713 1 112.219 88.5334 -5.55112e-17
714 2 0.693711 118.629 -5.55112e-17
715 2 78.196 80.938 -5.55112e-17
716 1 116.103 154.388 -5.55112e-17
717 1 44.3725 212.172 -5.55112e-17
718 2 187.636 148.04 -5.55112e-17
719 1 69.4049 144.135 -5.55112e-17
720 2 214.658 146.674 -5.55112e-17
721 2 103.103 46.0539 -5.55112e-17
722 2 52.743 77.4136 -5.55112e-17
723 2 173.418 121.38 -5.55112e-17
724 2 99.088 124.913 -5.55112e-17
725 2 203.308 201.592 -5.55112e-17
726 2 145.657 100.115 -5.55112e-17
727 2 204.932 159.922 -5.55112e-17
728 1 61.268 35.1662 -5.55112e-17
729 2 210.007 74.5565 -5.55112e-17
730 2 88.2789 133.894 -5.55112e-17
731 1 142.573 205.099 -5.55112e-17
732 2 67.14 48.2144 -5.55112e-17
733 2 93.1274 146.891 -5.55112e-17
734 2 12.0899 215.897 -5.55112e-17
735 2 119.599 191.279 -5.55112e-17
736 1 55.3965 23.6756 -5.55112e-17
737 2 130.862 20.9443 -5.55112e-17
738 2 173.659 16.9892 -5.55112e-17
739 2 95.8803 11.0013 -5.55112e-17
740 2 49.0827 120.873 -5.55112e-17
741 2 140.274 213.072 -5.55112e-17
742 1 9.60516 160.8 -5.55112e-17
743 2 170.003 82.934 -5.55112e-17
744 1 5.16859 51.6923 -5.55112e-17
745 2 104.26 20.539 -5.55112e-17
746 1 137.338 104.959 -5.55112e-17
747 1 115.797 213.687 -5.55112e-17
748 2 21.4979 116.516 -5.55112e-17
749 1 137.207 19.859 -5.55112e-17
750 1 1.54305 199.873 -5.55112e-17
751 1 25.915 173.37 -5.55112e-17
752 2 24.6125 192.812 -5.55112e-17
753 1 107.755 11.2763 -5.55112e-17
754 2 166.308 206.719 -5.55112e-17
755 1 34.3803 29.3646 -5.55112e-17
756 2 165.621 167.194 -5.55112e-17
757 1 87.495 183.212 -5.55112e-17
758 2 152.994 188.727 -5.55112e-17
759 1 72.2093 185.306 -5.55112e-17
760 1 98.2655 139.643 -5.55112e-17
761 2 105.694 184.987 -5.55112e-17
762 1 128.574 32.1181 -5.55112e-17
763 2 104.457 93.1573 -5.55112e-17
764 2 133.075 151.525 -5.55112e-17
765 1 170.534 103.441 -5.55112e-17
766 2 60.0742 184.389 -5.55112e-17
767 2 204.083 109.715 -5.55112e-17
768 2 103.944 23.2188 -5.55112e-17
769 2 176.762 214.004 -5.55112e-17
770 1 185.804 98.9294 -5.55112e-17
771 1 134.237 2.98469 -5.55112e-17
772 1 169.241 111.608 -5.55112e-17
773 2 122.446 25.1232 -5.55112e-17
774 1 50.1019 47.0312 -5.55112e-17
775 1 43.2963 66.8859 -5.55112e-17
776 2 159.305 94.3302 -5.55112e-17
777 2 214.84 11.643 -5.55112e-17
778 1 107.954 173.665 -5.55112e-17
779 1 83.1045 136.388 -5.55112e-17
780 2 46.8557 6.24295 -5.55112e-17
781 1 170.101 129.576 -5.55112e-17
782 2 152.039 197.698 -5.55112e-17
783 1 110.906 157 -5.55112e-17
784 2 25.5769 167.806 -5.55112e-17
785 1 147.196 114.646 -5.55112e-17
786 1 167.84 120.897 -5.55112e-17
787 2 192.437 140.749 -5.55112e-17
788 2 138.66 46.9681 -5.55112e-17
789 2 145.396 184.604 -5.55112e-17
790 2 180.114 183.241 -5.55112e-17
791 2 19.3348 93.0757 -5.55112e-17
792 1 161.943 95.3537 -5.55112e-17
793 1 108.466 141.033 -5.55112e-17
794 2 156.185 85.2685 -5.55112e-17
795 2 65.0031 149.806 -5.55112e-17
796 1 196.534 17.6794 -5.55112e-17
797 1 170.045 127.222 -5.55112e-17
798 1 23.4643 214.249 -5.55112e-17
799 2 98.3198 5.22008 -5.55112e-17
800 1 14.6451 21.805 -5.55112e-17
801 2 139.309 77.3899 -5.55112e-17
802 1 5.55372 163.591 -5.55112e-17
803 1 54.3023 215.575 -5.55112e-17
804 1 183.714 166.342 -5.55112e-17
805 2 113.69 215.827 -5.55112e-17
806 2 184.303 216.567 -5.55112e-17
807 2 158.279 107.761 -5.55112e-17
808 2 127.548 26.8214 -5.55112e-17
809 1 174.183 26.9275 -5.55112e-17
810 2 38.6289 65.3779 -5.55112e-17
811 2 25.7151 39.9836 -5.55112e-17
812 1 214.682 217.559 -5.55112e-17
813 1 203.941 94.7301 -5.55112e-17
814 1 169.35 184.56 -5.55112e-17
815 1 104.042 198.441 -5.55112e-17
816 1 169.075 46.7181 -5.55112e-17
817 2 125.588 38.5852 -5.55112e-17
818 2 67.4468 18.6848 -5.55112e-17
819 2 72.7944 175.166 -5.55112e-17
820 1 188.942 110.035 -5.55112e-17
821 1 130.404 52.39 -5.55112e-17
822 2 64.8956 155.509 -5.55112e-17
823 1 27.4883 62.2943 -5.55112e-17
824 1 31.2482 101.186 -5.55112e-17
825 1 94.3008 38.4728 -5.55112e-17
826 2 160.242 60.8605 -5.55112e-17
827 2 116.755 146.552 -5.55112e-17
828 1 58.4345 74.0444 -5.55112e-17
829 2 156.045 182.24 -5.55112e-17
830 1 22.5454 26.9207 -5.55112e-17
831 2 125.098 74.9488 -5.55112e-17
832 2 145.268 181.505 -5.55112e-17
833 2 161.639 112.811 -5.55112e-17
834 1 26.1737 77.7493 -5.55112e-17
835 1 12.1011 156.212 -5.55112e-17
836 1 41.0821 32.8792 -5.55112e-17
837 2 86.6291 197.18 -5.55112e-17
838 2 44.2586 165.419 -5.55112e-17
839 1 102.459 174.66 -5.55112e-17
840 2 17.2748 20.699 -5.55112e-17
841 2 78.6093 188.084 -5.55112e-17
842 1 131.091 187.888 -5.55112e-17
843 1 209.536 148.79 -5.55112e-17
844 2 63.4019 125.957 -5.55112e-17
845 1 193.611 29.3902 -5.55112e-17
846 2 2.78282 167.827 -5.55112e-17
847 1 174.462 204.339 -5.55112e-17
848 2 85.9404 128.85 -5.55112e-17
849 1 210.268 23.8101 -5.55112e-17
850 2 112.919 149.693 -5.55112e-17
851 2 155.044 23.5104 -5.55112e-17
852 1 91.1763 15.9422 -5.55112e-17
853 1 50.6589 23.794 -5.55112e-17
854 2 135.334 45.1133 -5.55112e-17
855 2 28.4685 183.723 -5.55112e-17
856 1 141.525 85.435 -5.55112e-17