ITEM: TIMESTEP
0
ITEM: NUMBER OF ATOMS
7200
ITEM: BOX BOUNDS xy xz yz pp pp pp
0.0000000000000000e+00 2.1900000000000000e+02 0.0000000000000000e+00
0.0000000000000000e+00 2.1900000000000000e+02 0.0000000000000000e+00
-3.6499999999999999e-01 3.6499999999999999e-01 0.0000000000000000e+00
ITEM: ATOMS id type x y z
1 1 182.445 13.2139 -5.55112e-17
2 2 188.408 183.118 -5.55112e-17
3 2 144.735 189.145 -5.55112e-17
4 1 122.809 110.471 -5.55112e-17
5 1 101.031 122.671 -5.55112e-17
6 1 104.279 25.3221 -5.55112e-17
7 2 158.736 128.967 -5.55112e-17
8 2 70.0313 26.0887 -5.55112e-17
9 1 21.8132 214.862 -5.55112e-17
10 2 52.5382 166.787 -5.55112e-17
11 2 210.174 100.172 -5.55112e-17
12 1 33.739 197.652 -5.55112e-17
13 2 194.558 53.6884 -5.55112e-17
14 1 57.7238 184.763 -5.55112e-17
15 2 192.866 218.991 -5.55112e-17
16 2 218.594 85.2957 -5.55112e-17
17 1 67.952 74.1604 -5.55112e-17
18 2 10.419 172.663 -5.55112e-17
19 1 93.1179 130.114 -5.55112e-17
20 1 72.6083 10.9931 -5.55112e-17
21 1 156.585 7.9297 -5.55112e-17
22 2 31.5999 212.438 -5.55112e-17
23 2 43.2965 208.593 -5.55112e-17
24 2 218.679 102.96 -5.55112e-17
25 2 30.1669 207.616 -5.55112e-17
26 2 148.825 27.8723 -5.55112e-17
27 1 217.372 162.528 -5.55112e-17
28 2 54.4486 154.582 -5.55112e-17
29 2 83.7169 3.74978 -5.55112e-17
30 2 131.674 37.5595 -5.55112e-17
31 2 156.312 83.7868 -5.55112e-17
32 1 48.2569 108.778 -5.55112e-17
33 2 145.082 87.3655 -5.55112e-17
34 2 16.1216 96.0959 -5.55112e-17
35 2 127.02 11.3418 -5.55112e-17
36 1 160.347 146.797 -5.55112e-17
37 1 133.376 185.224 -5.55112e-17
38 2 209.181 157.798 -5.55112e-17
39 1 7.79781 38.0458 -5.55112e-17
40 2 196.5 73.6979 -5.55112e-17
41 1 192.649 73.2072 -5.55112e-17
42 1 55.0711 58.6457 -5.55112e-17
43 1 210.446 131.962 -5.55112e-17
44 1 155.279 188.672 -5.55112e-17
45 2 159.185 61.3095 -5.55112e-17
46 1 124.039 192.665 -5.55112e-17
47 2 89.632 80.5166 -5.55112e-17
48 2 150.442 129.081 -5.55112e-17
49 1 194.337 199.916 -5.55112e-17
50 2 29.0716 47.4385 -5.55112e-17
51 1 186.262 3.11147 -5.55112e-17
52 1 115.703 47.9956 -5.55112e-17
53 2 55.0673 200.96 -5.55112e-17
54 1 38.9417 16.746 -5.55112e-17
55 2 53.5623 141.24 -5.55112e-17
56 1 31.1409 132.798 -5.55112e-17
57 2 58.3777 133.654 -5.55112e-17
58 1 185.471 35.8475 -5.55112e-17
59 1 157.386 85.9431 -5.55112e-17
60 2 206.21 59.4033 -5.55112e-17
61 1 157.423 164.667 -5.55112e-17
62 1 106.88 111.836 -5.55112e-17
63 2 108.761 38.9905 -5.55112e-17
64 1 28.1174 17.916 -5.55112e-17
65 2 152.401 149.287 -5.55112e-17
66 2 13.0613 154.882 -5.55112e-17
67 2 182.73 107.537 -5.55112e-17
68 1 136.833 83.0831 -5.55112e-17
69 2 109.774 168.748 -5.55112e-17
70 1 141.406 97.7767 -5.55112e-17
71 1 198.253 147.484 -5.55112e-17
72 2 44.9968 157.311 -5.55112e-17
73 2 191.953 179.05 -5.55112e-17
74 2 109.485 67.3845 -5.55112e-17
75 1 14.6606 136.811 -5.55112e-17
76 2 138.057 206.677 -5.55112e-17
77 2 168.327 15.8109 -5.55112e-17
78 1 93.2937 207.85 -5.55112e-17
79 2 60.7718 76.0063 -5.55112e-17
80 1 49.9545 22.7727 -5.55112e-17
81 1 181.537 211.186 -5.55112e-17
82 1 172.325 39.0303 -5.55112e-17
83 1 71.146 91.1266 -5.55112e-17
84 2 140.839 179.401 -5.55112e-17
85 2 151.337 146.22 -5.55112e-17
86 2 51.2211 68.1219 -5.55112e-17
87 2 38.993 75.5826 -5.55112e-17
88 1 80.5768 157.47 -5.55112e-17
89 2 199.593 105.093 -5.55112e-17
90 2 125.704 36.5297 -5.55112e-17
91 2 11.0566 182.467 -5.55112e-17
92 1 27.4474 215.42 -5.55112e-17
93 2 110.241 154.675 -5.55112e-17
94 2 112.936 144.041 -5.55112e-17
95 1 211.386 51.9769 -5.55112e-17
96 2 31.7142 54.3434 -5.55112e-17
97 2 4.57461 211.631 -5.55112e-17
98 2 35.794 185.206 -5.55112e-17
99 1 105.195 9.58213 -5.55112e-17
100 2 158.832 65.9678 -5.55112e-17
101 1 184.182 109.695 -5.55112e-17
102 1 66.4056 164.295 -5.55112e-17
103 2 204.82 100.173 -5.55112e-17
104 2 104.223 73.0851 -5.55112e-17
105 1 160.657 59.2298 -5.55112e-17
106 1 185.088 60.4281 -5.55112e-17
107 1 11.8707 106.9 -5.55112e-17
108 1 70.0961 210.13 -5.55112e-17
109 2 217.489 39.4963 -5.55112e-17
110 2 144.596 29.7471 -5.55112e-17
111 1 52.9639 92.2468 -5.55112e-17
112 2 8.52905 50.8017 -5.55112e-17
113 1 134.9 10.8108 -5.55112e-17
114 1 92.4665 87.0731 -5.55112e-17
115 2 32.4493 60.2223 -5.55112e-17
116 2 183.735 15.7077 -5.55112e-17
117 1 163.166 110.565 -5.55112e-17
118 1 82.7862 94.3379 -5.55112e-17
119 2 99.1632 139.36 -5.55112e-17
120 2 200.802 58.8965 -5.55112e-17
121 1 205.382 138.59 -5.55112e-17
122 2 143.521 129.679 -5.55112e-17
123 2 6.72657 129.442 -5.55112e-17
124 1 161.566 199.971 -5.55112e-17
125 1 88.1212 192.551 -5.55112e-17
126 2 97.6972 84.3435 -5.55112e-17
127 2 208.608 110.767 -5.55112e-17
128 1 121.795 105.31 -5.55112e-17
129 1 144.077 194.388 -5.55112e-17
130 2 120.158 61.3459 -5.55112e-17
131 1 134.152 60.2909 -5.55112e-17
132 1 139.398 21.8896 -5.55112e-17
133 1 180.828 105.493 -5.55112e-17
134 1 81.1696 191.536 -5.55112e-17
135 2 177.504 61.1136 -5.55112e-17
136 1 190.683 118.484 -5.55112e-17
137 1 60.5823 7.79285 -5.55112e-17
138 2 156.189 158.95 -5.55112e-17
139 1 132.734 11.8028 -5.55112e-17
140 1 144.902 208.513 -5.55112e-17
141 1 51.5558 70.6775 -5.55112e-17
142 1 213.109 191.161 -5.55112e-17
143 1 26.1946 25.9584 -5.55112e-17
144 1 46.447 97.8057 -5.55112e-17
145 2 193.3 79.9821 -5.55112e-17
146 1 153.529 126.003 -5.55112e-17
147 2 16.1282 134.555 -5.55112e-17
148 1 24.0794 133.439 -5.55112e-17
149 1 147.624 190.222 -5.55112e-17
150 2 66.0178 52.4693 -5.55112e-17
151 1 132.34 137.953 -5.55112e-17
152 1 164.309 163.593 -5.55112e-17
153 2 124.145 130.668 -5.55112e-17
154 1 184.519 53.5391 -5.55112e-17
155 2 203.167 40.072 -5.55112e-17
156 2 109.492 197.238 -5.55112e-17
157 2 166.127 29.2129 -5.55112e-17
158 2 27.5796 7.76436 -5.55112e-17
159 2 11.9194 158.856 -5.55112e-17
160 2 120.678 55.0155 -5.55112e-17
161 2 129.867 138.541 -5.55112e-17
162 1 24.2472 66.496 -5.55112e-17
163 1 188.852 34.0734 -5.55112e-17
164 2 108.268 134.819 -5.55112e-17
165 1 49.2199 72.2347 -5.55112e-17
166 2 6.34529 199.793 -5.55112e-17
167 1 107.172 167.965 -5.55112e-17
168 1 211.6 102.585 -5.55112e-17
169 2 97.8637 199.287 -5.55112e-17
170 1 66.248 206.589 -5.55112e-17
171 1 137.356 92.2063 -5.55112e-17
172 1 199.448 199.928 -5.55112e-17
173 1 39.0806 204.075 -5.55112e-17
174 2 38.4817 173.099 -5.55112e-17
175 2 49.746 199.79 -5.55112e-17
176 1 119.938 151.862 -5.55112e-17
177 2 105.151 15.1281 -5.55112e-17
178 1 24.9707 7.70059 -5.55112e-17
179 2 106.339 197.308 -5.55112e-17
180 1 47.5274 76.4309 -5.55112e-17
181 1 15.7717 119.592 -5.55112e-17
182 1 113.721 86.5555 -5.55112e-17
183 1 64.0358 168.595 -5.55112e-17
184 2 157.671 25.8291 -5.55112e-17
185 2 190.198 78.659 -5.55112e-17
186 2 74.2838 206.183 -5.55112e-17
187 2 159.138 201.65 -5.55112e-17
188 2 60.4682 28.533 -5.55112e-17
189 1 191.763 57.6965 -5.55112e-17
190 1 196.793 55.4666 -5.55112e-17
191 2 34.9626 104.698 -5.55112e-17
192 2 91.1995 61.1032 -5.55112e-17
193 1 108.826 165.993 -5.55112e-17
194 1 26.4692 5.58735 -5.55112e-17
195 2 58.1483 119.751 -5.55112e-17
196 1 218.841 218.988 -5.55112e-17
197 2 119.375 50.4779 -5.55112e-17
198 2 206.071 27.4363 -5.55112e-17
199 2 99.5427 170.474 -5.55112e-17
200 2 98.5417 30.7923 -5.55112e-17
201 2 103.135 121.025 -5.55112e-17
202 1 43.756 34.2673 -5.55112e-17
203 1 18.1694 42.9861 -5.55112e-17
204 2 45.2752 78.5866 -5.55112e-17
205 2 183.224 181.918 -5.55112e-17
206 2 171.24 127.645 -5.55112e-17
207 1 74.4645 189.45 -5.55112e-17
208 2 135.075 54.5574 -5.55112e-17
209 2 33.0146 142.456 -5.55112e-17
210 1 182.143 113.033 -5.55112e-17
211 1 208.276 35.5416 -5.55112e-17
212 1 208.787 84.9713 -5.55112e-17
213 1 128.408 124 -5.55112e-17
214 2 11.739 11.3011 -5.55112e-17
215 1 5.31266 142.542 -5.55112e-17
216 1 54.8854 46.6845 -5.55112e-17
217 1 164.505 62.0664 -5.55112e-17
218 2 200.866 120.858 -5.55112e-17
219 2 136.315 189.816 -5.55112e-17
220 1 121.237 1.44329 -5.55112e-17
221 2 83.1822 6.81663 -5.55112e-17
222 1 158.669 157.425 -5.55112e-17
223 1 45.6496 120.266 -5.55112e-17
224 2 145.956 70.5592 -5.55112e-17
225 2 169.169 163.962 -5.55112e-17
226 1 196.127 10.583 -5.55112e-17
227 2 202.966 214.927 -5.55112e-17
228 2 117.856 63.784 -5.55112e-17
229 1 47.4807 22.5675 -5.55112e-17
230 1 5.18889 56.6575 -5.55112e-17
231 2 137.83 160.714 -5.55112e-17
232 1 17.8076 212.695 -5.55112e-17
233 2 75.6856 196.068 -5.55112e-17
234 1 1.06501 59.7926 -5.55112e-17
235 1 150.21 106.073 -5.55112e-17
236 2 153.134 52.8529 -5.55112e-17
237 2 99.1944 203.81 -5.55112e-17
238 2 94.9517 140.695 -5.55112e-17
239 1 35.1238 216.983 -5.55112e-17
240 1 129.617 90.9369 -5.55112e-17
241 2 3.27981 124.463 -5.55112e-17
242 1 193.979 28.4575 -5.55112e-17
243 2 214.96 130.073 -5.55112e-17
244 2 35.6716 190.825 -5.55112e-17
245 1 173.756 21.4556 -5.55112e-17
246 2 90.429 85.5189 -5.55112e-17
247 2 198.802 150.158 -5.55112e-17
248 1 38.1623 26.9009 -5.55112e-17
249 1 132.051 108.459 -5.55112e-17
250 1 133.941 27.9921 -5.55112e-17
251 2 102.13 43.425 -5.55112e-17
252 1 110.878 157.338 -5.55112e-17
253 2 95.5951 97.8838 -5.55112e-17
254 2 179.009 205.372 -5.55112e-17
255 2 122.679 50.3441 -5.55112e-17
256 1 3.10455 180.115 -5.55112e-17
257 2 32.4113 195.289 -5.55112e-17
258 1 210.945 80.8984 -5.55112e-17
259 2 161.052 141.638 -5.55112e-17
260 1 40.3818 192.614 -5.55112e-17
261 2 142.815 176.842 -5.55112e-17
262 2 186.789 110.156 -5.55112e-17
263 2 94.5019 172.746 -5.55112e-17
264 1 199.165 36.9052 -5.55112e-17
265 1 157.572 186.962 -5.55112e-17
266 1 98.4659 196.622 -5.55112e-17
267 2 115.245 16.659 -5.55112e-17
268 1 218.772 49.1252 -5.55112e-17
269 2 9.86387 113.579 -5.55112e-17
270 2 185.614 148.64 -5.55112e-17
271 2 187.629 94.8182 -5.55112e-17
272 1 59.4442 26.1699 -5.55112e-17
273 1 70.8399 83.4257 -5.55112e-17
274 1 37.9261 196.307 -5.55112e-17
275 1 146.727 109.927 -5.55112e-17
276 1 199.267 74.9377 -5.55112e-17
277 1 100.604 37.7212 -5.55112e-17
278 2 61.1619 145.127 -5.55112e-17
279 2 160.079 86.5115 -5.55112e-17
280 1 116.896 210.871 -5.55112e-17
281 2 169.859 182.47 -5.55112e-17
282 2 75.3387 127.3 -5.55112e-17
283 2 218.975 150.908 -5.55112e-17
284 1 126 113.59 -5.55112e-17
285 1 73.1738 165.239 -5.55112e-17
286 2 30.0408 180.126 -5.55112e-17
287 2 93.5606 109.787 -5.55112e-17
288 1 104.153 123.458 -5.55112e-17
289 2 194.571 57.1477 -5.55112e-17
290 1 100.974 29.468 -5.55112e-17
291 2 96.3067 185.69 -5.55112e-17
292 1 77.2909 125.564 -5.55112e-17
293 1 159.614 168.275 -5.55112e-17
294 1 29.9255 177.508 -5.55112e-17
295 2 46.658 145.698 -5.55112e-17
296 1 197.106 176.912 -5.55112e-17
297 1 2.07888 18.4386 -5.55112e-17
298 2 30.4429 141.012 -5.55112e-17
299 1 177.21 55.8741 -5.55112e-17
300 2 190.324 192.7 -5.55112e-17
301 2 171.799 19.4643 -5.55112e-17
302 2 163.734 89.2942 -5.55112e-17
303 1 2.51314 151.728 -5.55112e-17
304 1 124.367 105.828 -5.55112e-17
305 1 92.1118 177.538 -5.55112e-17
306 2 83.9736 17.854 -5.55112e-17
307 2 150.86 167.908 -5.55112e-17
308 2 141.893 22.6103 -5.55112e-17
309 1 70.7102 72.3425 -5.55112e-17
310 1 190.474 190.061 -5.55112e-17
311 1 150.964 108.592 -5.55112e-17
312 2 134.85 13.6165 -5.55112e-17
313 2 154.868 18.0909 -5.55112e-17
314 1 183.855 58.3165 -5.55112e-17
315 2 56.8237 107.603 -5.55112e-17
316 1 95.7892 30.9001 -5.55112e-17
317 1 132.999 175.774 -5.55112e-17
318 1 216.553 135.514 -5.55112e-17
319 2 74.4118 201.033 -5.55112e-17
320 1 213.843 48.0717 -5.55112e-17
321 1 52.6853 87.1273 -5.55112e-17
322 1 51.2224 147.926 -5.55112e-17
323 2 20.0469 138.842 -5.55112e-17
324 2 7.75828 95.5631 -5.55112e-17
325 2 216.11 13.7318 -5.55112e-17
326 1 184.743 1.05032 -5.55112e-17
327 1 35.7417 46.0017 -5.55112e-17
328 2 32.459 192.28 -5.55112e-17
329 2 28.7514 83.255 -5.55112e-17
330 2 153.211 39.0872 -5.55112e-17
331 2 188.229 67.773 -5.55112e-17
332 2 121.445 114.94 -5.55112e-17
333 2 27.8589 151.201 -5.55112e-17
334 2 215.662 18.0994 -5.55112e-17
335 1 166.964 211.39 -5.55112e-17
336 2 27.7611 142.034 -5.55112e-17
337 2 40.5848 9.57578 -5.55112e-17
338 1 203.741 90.4897 -5.55112e-17
339 2 14.8569 152.296 -5.55112e-17
340 2 176.715 214.46 -5.55112e-17
341 2 101.673 60.1244 -5.55112e-17
342 2 173.67 166.637 -5.55112e-17
343 2 175.795 5.19879 -5.55112e-17
344 1 88.0361 105.823 -5.55112e-17
345 2 26.6268 212.721 -5.55112e-17
346 2 75.3999 72.9403 -5.55112e-17
347 1 147.75 98.566 -5.55112e-17
348 1 181.153 3.85157 -5.55112e-17
349 2 173.28 70.3179 -5.55112e-17
350 2 78.2031 178.851 -5.55112e-17
351 1 174.77 141.521 -5.55112e-17
352 1 212.682 163.584 -5.55112e-17
353 2 141.591 132.004 -5.55112e-17
354 2 192.046 176.003 -5.55112e-17
355 1 216.089 157.161 -5.55112e-17
356 2 115.005 1.44944 -5.55112e-17
357 1 126.787 192.769 -5.55112e-17
358 1 78.255 25.5781 -5.55112e-17
359 1 34.8914 144.074 -5.55112e-17
360 1 51.5582 7.99103 -5.55112e-17
361 2 196.692 68.5568 -5.55112e-17
362 2 171.974 94.4919 -5.55112e-17
363 1 78.8802 215.509 -5.55112e-17
364 2 217.208 46.9356 -5.55112e-17
365 1 5.80427 164.438 -5.55112e-17
366 1 82.6354 172.809 -5.55112e-17
367 1 160.98 104.127 -5.55112e-17
368 1 21.126 164.304 -5.55112e-17
369 2 81.8417 143.747 -5.55112e-17
370 1 6.32817 132.252 -5.55112e-17
371 2 71.3229 111.167 -5.55112e-17
372 1 87.9595 6.5185 -5.55112e-17
373 2 118.067 208.541 -5.55112e-17
374 2 176.842 101.463 -5.55112e-17
375 1 136.003 25.9078 -5.55112e-17
376 1 122.074 147.388 -5.55112e-17
377 2 95.4012 76.178 -5.55112e-17
378 2 215.424 106.852 -5.55112e-17
379 2 169.641 187.773 -5.55112e-17
380 1 199.424 34.1271 -5.55112e-17
381 1 174.937 67.7309 -5.55112e-17
382 1 122.271 26.8712 -5.55112e-17
383 1 110.344 83.2813 -5.55112e-17
384 2 54.1547 100.846 -5.55112e-17
385 1 66.1032 148.73 -5.55112e-17
386 2 180.028 175.58 -5.55112e-17
387 1 34.3326 107.495 -5.55112e-17
388 1 144.194 164.311 -5.55112e-17
389 2 215.859 121.188 -5.55112e-17
390 1 105.095 66.4207 -5.55112e-17
391 1 202.874 217.576 -5.55112e-17
392 2 4.08134 100.267 -5.55112e-17
393 2 192.978 172.971 -5.55112e-17
394 1 36.4944 203.882 -5.55112e-17
395 1 19.0916 214.986 -5.55112e-17
396 2 75.6575 88.388 -5.55112e-17
397 1 67.3726 41.9094 -5.55112e-17
398 2 165.635 111.022 -5.55112e-17
399 2 196.946 106.428 -5.55112e-17
400 2 123.741 68.9054 -5.55112e-17
401 2 83.9797 190.287 -5.55112e-17
402 1 84.3619 43.0109 -5.55112e-17
403 1 69.7755 116.617 -5.55112e-17
404 2 113.027 14.1847 -5.55112e-17
405 1 49.0543 197.157 -5.55112e-17
406 2 216.953 95.816 -5.55112e-17
407 1 123.896 78.7537 -5.55112e-17
408 1 129.699 29.1805 -5.55112e-17
409 2 214.102 115.9 -5.55112e-17
410 2 70.7106 158.971 -5.55112e-17
411 1 136.351 96.8198 -5.55112e-17
412 1 164.194 6.85495 -5.55112e-17
413 1 34.6308 85.9295 -5.55112e-17
414 2 193.23 202.447 -5.55112e-17
415 1 107.22 126.615 -5.55112e-17
416 1 175.856 52.029 -5.55112e-17
417 2 107.647 129.341 -5.55112e-17
418 2 34.5067 179.752 -5.55112e-17
419 2 195.791 91.5429 -5.55112e-17
420 2 108.886 44.3499 -5.55112e-17
421 1 70.5459 31.2864 -5.55112e-17
422 1 34.1826 58.2945 -5.55112e-17
423 2 116.413 125.508 -5.55112e-17
424 2 38.9624 24.3414 -5.55112e-17
425 2 117.307 150.563 -5.55112e-17
426 1 185.883 96.9549 -5.55112e-17
427 2 74.8935 60.4747 -5.55112e-17
428 1 29.501 174.96 -5.55112e-17
429 2 131.426 150.119 -5.55112e-17
430 2 111.704 104.488 -5.55112e-17
431 1 13.0056 8.92022 -5.55112e-17
432 2 173.603 3.23889 -5.55112e-17
433 1 186.614 198.575 -5.55112e-17
434 1 20.3683 205.098 -5.55112e-17
435 1 149.589 85.1856 -5.55112e-17
436 2 85.4592 198.322 -5.55112e-17
437 2 181.243 82.6414 -5.55112e-17
438 2 194.593 177.502 -5.55112e-17
439 2 92.9686 9.97534 -5.55112e-17
440 2 201.432 91.9422 -5.55112e-17
441 1 131.022 167.477 -5.55112e-17
442 1 37.6486 104.506 -5.55112e-17
443 2 79.4724 82.0588 -5.55112e-17
444 1 204.436 104.84 -5.55112e-17
445 1 169.123 133.057 -5.55112e-17
446 2 183.313 150.626 -5.55112e-17
447 2 40.1799 40.1821 -5.55112e-17
448 2 205.868 175.874 -5.55112e-17
449 1 41.415 177.087 -5.55112e-17
450 1 10.3264 126.516 -5.55112e-17
451 1 54.0229 209.557 -5.55112e-17
452 2 208.828 60.9989 -5.55112e-17
453 1 216.5 150.104 -5.55112e-17
454 1 3.45493 68.8627 -5.55112e-17
455 2 81.4362 131.239 -5.55112e-17
456 1 85.5348 1.58255 -5.55112e-17
457 2 140.679 145.066 -5.55112e-17
458 2 155.836 135.523 -5.55112e-17
459 2 133.269 51.7161 -5.55112e-17
460 1 197.555 169.829 -5.55112e-17
461 1 111.81 128.49 -5.55112e-17
462 1 103.902 196.375 -5.55112e-17
463 2 110.456 218.363 -5.55112e-17
464 2 13.7935 77.6901 -5.55112e-17
465 1 123.816 16.1872 -5.55112e-17
466 2 150.732 126.28 -5.55112e-17
467 2 65.7779 133.203 -5.55112e-17
468 2 124.127 125.974 -5.55112e-17
469 2 58.4046 71.658 -5.55112e-17
470 2 208.848 154.622 -5.55112e-17
471 2 212.125 211.33 -5.55112e-17
472 2 111.029 36.5925 -5.55112e-17
473 2 197.535 214.855 -5.55112e-17
474 2 84.887 146.933 -5.55112e-17
475 1 164.049 183.221 -5.55112e-17
476 2 174.791 34.901 -5.55112e-17
477 1 208.195 218.171 -5.55112e-17
478 1 46.1394 188.275 -5.55112e-17
479 2 0.761158 197.827 -5.55112e-17
480 1 82.9009 61.643 -5.55112e-17
481 1 2.9665 209.38 -5.55112e-17
482 2 153.097 176.506 -5.55112e-17
483 1 134.798 209.375 -5.55112e-17
484 1 66.2235 135.623 -5.55112e-17
485 2 13.6034 174.012 -5.55112e-17
486 1 132.654 72.8397 -5.55112e-17
487 1 13.4214 201.986 -5.55112e-17
488 1 50.0623 83.478 -5.55112e-17
489 1 70.1459 108.954 -5.55112e-17
490 1 164.677 73.3599 -5.55112e-17
491 1 163.145 75.5498 -5.55112e-17
492 2 208.849 15.4926 -5.55112e-17
493 1 93.6518 203.015 -5.55112e-17
494 2 78.1267 66.3302 -5.55112e-17
495 1 150.183 92.131 -5.55112e-17
496 1 52.0673 123.452 -5.55112e-17
497 1 136.786 110.015 -5.55112e-17
498 2 145.205 39.0371 -5.55112e-17
499 2 177.542 118.882 -5.55112e-17
500 2 57.4062 32.4766 -5.55112e-17
501 2 14.9092 139.571 -5.55112e-17
502 2 190.575 126.294 -5.55112e-17
503 2 57.7002 63.8116 -5.55112e-17
504 2 98.2353 50.3533 -5.55112e-17
505 2 112.261 213.815 -5.55112e-17
506 1 206.884 6.61502 -5.55112e-17
507 2 49.8143 182.353 -5.55112e-17
508 1 140.755 59.2792 -5.55112e-17
509 1 209.49 47.4009 -5.55112e-17
510 1 195.335 104.267 -5.55112e-17
511 2 107.64 181.457 -5.55112e-17
512 1 10.9839 42.3162 -5.55112e-17
513 2 87.882 182.848 -5.55112e-17
514 2 15.2038 87.6169 -5.55112e-17
515 1 60.6174 98.5818 -5.55112e-17
516 2 101.411 73.9905 -5.55112e-17
517 1 32.5816 147.817 -5.55112e-17
518 2 9.99632 13.7662 -5.55112e-17
519 1 124.941 92.1403 -5.55112e-17
520 2 209.541 93.7219 -5.55112e-17
521 2 129.546 39.9921 -5.55112e-17
522 1 186.83 7.59677 -5.55112e-17
523 1 127.627 99.5369 -5.55112e-17
524 2 174.796 18.9537 -5.55112e-17
525 2 185.658 45.9996 -5.55112e-17
526 2 107.84 16.2744 -5.55112e-17
527 1 170.398 25.2625 -5.55112e-17
528 1 213.05 202.019 -5.55112e-17
529 2 104.813 176.043 -5.55112e-17
530 2 18.277 88.325 -5.55112e-17
531 2 185.002 171.478 -5.55112e-17
532 1 81.1813 4.96913 -5.55112e-17
533 2 23.4864 157.837 -5.55112e-17
534 1 22.8058 168.404 -5.55112e-17
535 1 169.41 206.831 -5.55112e-17
536 2 18.1227 169.323 -5.55112e-17
537 1 141.979 29.4305 -5.55112e-17
538 1 68.3899 157.774 -5.55112e-17
539 2 81.079 162.778 -5.55112e-17
540 1 35.2374 182.425 -5.55112e-17
541 1 105.113 128.675 -5.55112e-17
542 1 58.4759 126.462 -5.55112e-17
543 2 120.595 168.624 -5.55112e-17
544 1 217.625 211.744 -5.55112e-17
545 1 175.001 72.2118 -5.55112e-17
546 2 186.648 10.3152 -5.55112e-17
547 1 12.8884 71.8085 -5.55112e-17
548 1 29.227 5.6323 -5.55112e-17
549 2 35.3979 152.513 -5.55112e-17
550 2 164.982 193.59 -5.55112e-17
551 2 38.7016 7.30393 -5.55112e-17
552 1 31.8047 51.737 -5.55112e-17
553 2 207.041 196.575 -5.55112e-17
554 2 143.928 34.3539 -5.55112e-17
555 2 178.081 134.872 -5.55112e-17
556 1 177.621 211.93 -5.55112e-17
557 1 211.44 54.4023 -5.55112e-17
558 1 60.1713 142.698 -5.55112e-17
559 2 106.208 91.4983 -5.55112e-17
560 2 57.3426 89.5322 -5.55112e-17
561 2 110.706 181.355 -5.55112e-17
562 2 98.3907 65.0625 -5.55112e-17
563 1 73.3766 168.202 -5.55112e-17
564 2 103.66 78.518 -5.55112e-17
565 2 33.9536 65.2253 -5.55112e-17
566 2 64.3536 60.416 -5.55112e-17
567 1 95.1041 11.4503 -5.55112e-17
568 1 22.371 77.7983 -5.55112e-17
569 2 141.503 194.592 -5.55112e-17
570 2 11.7119 21.0194 -5.55112e-17
571 2 5.54273 62.1561 -5.55112e-17
572 1 115.277 107.801 -5.55112e-17
573 2 37.7018 89.8778 -5.55112e-17
574 2 178.842 170.585 -5.55112e-17
575 1 196.059 206.789 -5.55112e-17
576 1 25.8865 68.2879 -5.55112e-17
577 1 127.667 74.6859 -5.55112e-17
578 1 183.796 115.052 -5.55112e-17
579 2 180.386 51.109 -5.55112e-17
580 1 109.035 103.7 -5.55112e-17
581 1 91.7129 146.795 -5.55112e-17
582 2 125.47 101.317 -5.55112e-17
583 2 103.334 84.0383 -5.55112e-17
584 2 107.417 151.298 -5.55112e-17
585 1 181.68 103.187 -5.55112e-17
586 1 143.539 79.8754 -5.55112e-17
587 1 158.254 111.921 -5.55112e-17
588 2 64.1236 108.736 -5.55112e-17
589 1 210.999 59.5936 -5.55112e-17
590 2 181.404 58.1918 -5.55112e-17
591 2 178.305 16.8109 -5.55112e-17
592 1 204.128 128.67 -5.55112e-17
593 1 127.067 90.2179 -5.55112e-17
594 1 5.55713 70.1548 -5.55112e-17
595 1 33.6535 62.5743 -5.55112e-17
596 2 106.935 71.6083 -5.55112e-17
597 2 63.4723 105.718 -5.55112e-17
598 2 135.907 87.5714 -5.55112e-17
599 2 96.8886 165.756 -5.55112e-17
600 2 49.2222 98.6491 -5.55112e-17
601 1 145.746 107.639 -5.55112e-17
602 1 173.397 52.0908 -5.55112e-17
603 2 216.649 159.655 -5.55112e-17
604 1 46.1549 178.84 -5.55112e-17
605 2 139.947 100.237 -5.55112e-17
606 2 150.296 99.0471 -5.55112e-17
607 2 47.7958 169.352 -5.55112e-17
608 2 128.082 31.099 -5.55112e-17
609 1 78.3431 89.2783 -5.55112e-17
610 2 105.844 200.364 -5.55112e-17
611 1 1.42284 165.778 -5.55112e-17
612 1 207.036 117.525 -5.55112e-17
613 2 213.549 156.464 -5.55112e-17
614 1 202.428 30.8707 -5.55112e-17
615 1 151.944 104.118 -5.55112e-17
616 2 145.936 177.881 -5.55112e-17
617 1 168.722 1.15085 -5.55112e-17
618 1 137.293 216.296 -5.55112e-17
619 1 164.415 160.966 -5.55112e-17
620 2 42.414 89.1456 -5.55112e-17
621 2 203.717 76.9951 -5.55112e-17
622 2 144.896 154.331 -5.55112e-17
623 2 108.914 147.093 -5.55112e-17
624 1 107.176 177.262 -5.55112e-17
625 2 208.732 79.7049 -5.55112e-17
626 1 210.646 190.245 -5.55112e-17
627 2 195.533 192.75 -5.55112e-17
628 1 117.027 156.159 -5.55112e-17
629 1 30.1109 41.3373 -5.55112e-17
630 2 133.609 214.044 -5.55112e-17
631 2 144.555 115.117 -5.55112e-17
632 2 208.789 19.9866 -5.55112e-17
633 2 60.7126 131.601 -5.55112e-17
634 2 191.548 67.6487 -5.55112e-17
635 2 80.0989 72.2713 -5.55112e-17
636 1 88.4216 130.979 -5.55112e-17
637 1 217.119 152.776 -5.55112e-17
638 1 116.375 69.1808 -5.55112e-17
639 2 200.875 65.1599 -5.55112e-17
640 2 149.382 77.9011 -5.55112e-17
641 1 200.244 96.545 -5.55112e-17
642 2 161.459 35.6647 -5.55112e-17
643 1 165.448 58.1654 -5.55112e-17
644 2 139.561 155.324 -5.55112e-17
645 2 5.74732 75.2464 -5.55112e-17
646 1 169.521 142.379 -5.55112e-17
647 2 129.327 148.239 -5.55112e-17
648 2 190.305 211.527 -5.55112e-17
649 1 63.9012 145.252 -5.55112e-17
650 1 56.3623 152.893 -5.55112e-17
651 1 112.341 131.122 -5.55112e-17
652 2 8.33828 213.861 -5.55112e-17
653 2 195.732 45.0076 -5.55112e-17
654 1 208.514 164.593 -5.55112e-17
655 1 63.5472 47.5027 -5.55112e-17
656 1 198.78 10.6106 -5.55112e-17
657 1 125.071 120.714 -5.55112e-17
658 2 165.926 105.599 -5.55112e-17
659 2 101.522 137.285 -5.55112e-17
660 1 24.7332 12.2369 -5.55112e-17
661 2 15.747 36.6927 -5.55112e-17
662 2 135.761 117.007 -5.55112e-17
663 1 163.36 112.882 -5.55112e-17
664 1 80.2133 138.686 -5.55112e-17
665 1 135.543 143.912 -5.55112e-17
666 1 203.145 185.633 -5.55112e-17
667 1 0.0624615 116.832 -5.55112e-17
668 1 134.252 156.957 -5.55112e-17
669 1 107.018 161.068 -5.55112e-17
670 2 212.062 160.993 -5.55112e-17
671 1 3.19734 16.0888 -5.55112e-17
672 1 193.596 141.255 -5.55112e-17
673 2 47.5911 84.3868 -5.55112e-17
674 2 182.39 205.585 -5.55112e-17
675 2 152.31 2.23315 -5.55112e-17
676 1 180.504 159.674 -5.55112e-17
677 2 53.2793 53.1408 -5.55112e-17
678 1 86.7162 113.591 -5.55112e-17
679 1 87.0995 64.8266 -5.55112e-17
680 2 71.869 13.5409 -5.55112e-17
681 1 5.17257 8.9937 -5.55112e-17
682 1 141.653 171.827 -5.55112e-17
683 2 96.0471 123.559 -5.55112e-17
684 1 23.2192 180.394 -5.55112e-17
685 1 83.75 206.607 -5.55112e-17
686 1 143.135 159.845 -5.55112e-17
687 1 107.694 53.0404 -5.55112e-17
688 1 151.981 97.0181 -5.55112e-17
689 2 10.3859 139.612 -5.55112e-17
690 1 47.9701 120.715 -5.55112e-17
691 2 64.8824 115.092 -5.55112e-17
692 2 180.74 178.814 -5.55112e-17
693 1 161.285 96.1896 -5.55112e-17
694 2 147.086 149.817 -5.55112e-17
695 2 188.03 36.605 -5.55112e-17
696 2 31.7771 82.4016 -5.55112e-17
697 1 103.981 35.5265 -5.55112e-17
698 2 40.9799 18.2146 -5.55112e-17
699 1 57.0004 202.505 -5.55112e-17
700 2 17.5506 126.412 -5.55112e-17
701 2 31.217 63.6078 -5.55112e-17
702 1 160.462 9.83421 -5.55112e-17
703 1 195.64 60.5208 -5.55112e-17
704 1 159.7 121.825 -5.55112e-17
705 1 43.1279 120.281 -5.55112e-17
706 1 75.4069 161.35 -5.55112e-17
707 1 182.31 66.4731 -5.55112e-17
708 2 195.557 101.484 -5.55112e-17
709 1 54.3024 159.915 -5.55112e-17
710 2 91.8002 16.1889 -5.55112e-17
711 2 1.22678 139.212 -5.55112e-17
712 1 84.4359 213.77 -5.55112e-17
713 1 4.92641 152.283 -5.55112e-17
714 2 145.258 147.441 -5.55112e-17
715 2 133.244 86.8658 -5.55112e-17
716 1 89.0438 59.6806 -5.55112e-17
717 1 15.3083 61.1941 -5.55112e-17
718 2 78.5342 99.821 -5.55112e-17
719 1 68.5037 202.88 -5.55112e-17
720 2 51.6655 197.284 -5.55112e-17
721 2 44.0665 213.333 -5.55112e-17
722 2 65.1969 138.079 -5.55112e-17
723 2 15.7811 165.681 -5.55112e-17
724 2 202.183 107.008 -5.55112e-17
725 2 21.7504 50.1579 -5.55112e-17
726 2 177.959 123.622 -5.55112e-17
727 2 35.1412 109.718 -5.55112e-17
728 1 176.655 77.3882 -5.55112e-17
729 2 167.186 131.376 -5.55112e-17
730 2 175.012 94.356 -5.55112e-17
731 1 10.1458 23.1367 -5.55112e-17
732 2 98.2989 87.4425 -5.55112e-17
733 2 148.065 146.802 -5.55112e-17
734 2 59.1743 191.946 -5.55112e-17
735 2 149.168 71.721 -5.55112e-17
736 1 182.523 176.723 -5.55112e-17
737 2 48.5633 39.5053 -5.55112e-17
738 2 71.3567 207.678 -5.55112e-17
739 2 185.859 131.225 -5.55112e-17
740 2 40.3912 115.333 -5.55112e-17
741 2 200.399 113.6 -5.55112e-17
742 1 71.5826 98.9662 -5.55112e-17
743 2 78.9153 76.1234 -5.55112e-17
744 1 146.64 49.9056 -5.55112e-17
745 2 15.8646 75.6241 -5.55112e-17
746 1 218.594 121.413 -5.55112e-17
747 1 98.3572 163.413 -5.55112e-17
748 2 69.8968 197.737 -5.55112e-17
749 1 213.503 166.107 -5.55112e-17
750 1 139.36 147.832 -5.55112e-17
751 1 143.098 89.0249 -5.55112e-17
752 2 195.233 168.227 -5.55112e-17
753 1 37.0716 180.205 -5.55112e-17
754 2 66.183 80.9223 -5.55112e-17
755 1 6.45749 80.3661 -5.55112e-17
756 2 178.408 58.281 -5.55112e-17
757 1 110.364 15.3289 -5.55112e-17
758 2 99.0731 27.6771 -5.55112e-17
759 1 96.0018 133.194 -5.55112e-17
760 1 171.098 61.8209 -5.55112e-17
761 2 213.264 100.75 -5.55112e-17
762 1 178.431 106.011 -5.55112e-17
763 2 6.16083 157.6 -5.55112e-17
764 2 43.3922 188.252 -5.55112e-17
765 1 22.2449 160.043 -5.55112e-17
766 2 100.138 48.0328 -5.55112e-17
767 2 206.388 148.873 -5.55112e-17
768 2 72.2371 62.317 -5.55112e-17
769 2 188.535 98.048 -5.55112e-17
770 1 133.823 18.2593 -5.55112e-17
771 1 64.6813 63.1676 -5.55112e-17
772 1 129.062 0.477108 -5.55112e-17
773 2 166.835 172.196 -5.55112e-17
774 1 88.5659 87.2235 -5.55112e-17
775 1 103.226 75.8593 -5.55112e-17
776 2 192.755 103.05 -5.55112e-17
777 2 42.6567 79.9663 -5.55112e-17
778 1 83.4443 12.6097 -5.55112e-17
779 1 48.2219 61.6932 -5.55112e-17
780 2 83.6449 49.9447 -5.55112e-17
781 1 25.8764 171.535 -5.55112e-17
782 2 123.098 170.518 -5.55112e-17
783 1 74.5337 62.9913 -5.55112e-17
784 2 97.0265 110.559 -5.55112e-17
785 1 204.5 82.4323 -5.55112e-17
786 1 41.2511 6.94318 -5.55112e-17
787 2 38.5053 208.816 -5.55112e-17
788 2 164.917 180.783 -5.55112e-17
789 2 18.3025 147.454 -5.55112e-17
790 2 77.502 7.94927 -5.55112e-17
791 2 187.054 54.1386 -5.55112e-17
792 1 213.06 132.028 -5.55112e-17
793 1 97.135 171.607 -5.55112e-17
794 2 209.448 6.67698 -5.55112e-17
795 2 10.456 191.546 -5.55112e-17
796 1 68.9766 215.388 -5.55112e-17
797 1 46.5096 32.2686 -5.55112e-17
798 1 213.811 55.8611 -5.55112e-17
799 2 105.8 155.755 -5.55112e-17
800 1 56.699 37.1955 -5.55112e-17
801 2 68.6218 84.6764 -5.55112e-17
802 1 91.2699 216.336 -5.55112e-17
803 1 142.817 25.0344 -5.55112e-17
804 1 209.833 124.719 -5.55112e-17
805 2 183.607 117.643 -5.55112e-17
806 2 178.469 158.009 -5.55112e-17
807 2 208.222 29.5305 -5.55112e-17
808 2 76.3149 144.819 -5.55112e-17
809 1 175.914 63.415 -5.55112e-17
810 2 24.107 173.479 -5.55112e-17
811 2 179.809 55.523 -5.55112e-17
812 1 121.825 184.979 -5.55112e-17
813 1 21.8435 95.8564 -5.55112e-17
814 1 2.90995 204.96 -5.55112e-17
815 1 145.226 32.1354 -5.55112e-17
816 1 207.008 51.1068 -5.55112e-17
817 2 63.2961 70.9907 -5.55112e-17
818 2 29.4375 123.128 -5.55112e-17
819 2 211.103 67.8391 -5.55112e-17
820 1 9.96042 58.8738 -5.55112e-17
821 1 65.299 58.0925 -5.55112e-17
822 2 131.055 34.6469 -5.55112e-17
823 1 183.89 90.2953 -5.55112e-17
824 1 175.773 89.8497 -5.55112e-17
825 1 160.409 191.187 -5.55112e-17
826 2 178.459 82.1785 -5.55112e-17
827 2 102.129 26.8857 -5.55112e-17
828 1 50.3572 91.0733 -5.55112e-17
829 2 127.546 92.8527 -5.55112e-17
830 1 3.64909 156.748 -5.55112e-17
831 2 183.091 217.965 -5.55112e-17
832 2 26.7672 52.2304 -5.55112e-17
833 2 96.7389 42.1237 -5.55112e-17
834 1 70.9364 164.089 -5.55112e-17
835 1 185.141 141.296 -5.55112e-17
836 1 153.351 69.5801 -5.55112e-17
837 2 167.826 91.9861 -5.55112e-17
838 2 91.8334 26.4373 -5.55112e-17
839 1 39.0024 32.0483 -5.55112e-17
840 2 13.7531 117.302 -5.55112e-17
841 2 201.427 10.5313 -5.55112e-17
842 1 174.178 157.05 -5.55112e-17
843 1 205.033 30.0472 -5.55112e-17
844 2 8.55012 25.2111 -5.55112e-17
845 1 47.0221 150.892 -5.55112e-17
846 2 127.735 211.486 -5.55112e-17
847 1 88.6088 143.49 -5.55112e-17
848 2 113.149 8.88158 -5.55112e-17
849 1 25.0047 32.9077 -5.55112e-17
850 2 60.194 67.5818 -5.55112e-17
851 2 216.079 30.8703 -5.55112e-17
852 1 137.155 183.054 -5.55112e-17
853 1 186.066 104.684 -5.55112e-17
854 2 104.363 144.673 -5.55112e-17
855 2 165.631 120.948 -5.55112e-17
856 1 77.4189 160.129 -5.55112e-17
857 2 79.2492 119.851 -5.55112e-17