ITEM: TIMESTEP
0
ITEM: NUMBER OF ATOMS
7200
ITEM: BOX BOUNDS xy xz yz pp pp pp
0.0000000000000000e+00 2.1900000000000000e+02 0.0000000000000000e+00
0.0000000000000000e+00 2.1900000000000000e+02 0.0000000000000000e+00
-3.6499999999999999e-01 3.6499999999999999e-01 0.0000000000000000e+00
ITEM: ATOMS id type x y z
1 1 152.796 165.785 -5.55112e-17
2 2 163.332 120.949 -5.55112e-17
3 2 174.654 198.115 -5.55112e-17
4 1 216.049 198.367 -5.55112e-17
5 1 44.2132 14.5109 -5.55112e-17
6 1 41.7136 131.848 -5.55112e-17
7 2 72.9096 133.012 -5.55112e-17
8 2 64.3811 0.45507 -5.55112e-17
9 1 179.046 67.9527 -5.55112e-17
10 2 185.403 204.074 -5.55112e-17
11 2 31.5608 67.0058 -5.55112e-17
12 1 108.12 34.5382 -5.55112e-17
13 2 209.694 105.675 -5.55112e-17
14 1 72.4148 78.1616 -5.55112e-17
15 2 61.7334 58.9554 -5.55112e-17
16 2 86.05 23.3181 -5.55112e-17
17 1 126.221 49.4788 -5.55112e-17
18 2 28.264 192.696 -5.55112e-17
19 1 218.659 192.243 -5.55112e-17
20 1 149.13 193.598 -5.55112e-17
21 1 184.829 94.2105 -5.55112e-17
22 2 178.138 21.2641 -5.55112e-17
23 2 88.7544 14.9439 -5.55112e-17
24 2 66.7756 37.6872 -5.55112e-17
25 2 216.529 25.7406 -5.55112e-17
26 2 138.978 24.0556 -5.55112e-17
27 1 188.119 183.152 -5.55112e-17
28 2 25.8738 194.429 -5.55112e-17
29 2 195.738 153.606 -5.55112e-17
30 2 83.6452 94.5952 -5.55112e-17
31 2 201.511 65.7941 -5.55112e-17
32 1 65.2839 60.5619 -5.55112e-17
33 2 42.4841 85.6846 -5.55112e-17
34 2 24.0949 90.8351 -5.55112e-17
35 2 93.4729 55.9466 -5.55112e-17
36 1 168.833 216.813 -5.55112e-17
37 1 102.751 188.606 -5.55112e-17
38 2 71.9322 84.921 -5.55112e-17
39 1 111.356 165.927 -5.55112e-17
40 2 74.3849 122.48 -5.55112e-17
41 1 60.7694 65.6123 -5.55112e-17
42 1 5.56377 23.8081 -5.55112e-17
43 1 14.1096 110.568 -5.55112e-17
44 1 17.4899 130.155 -5.55112e-17
45 2 14.4157 118.061 -5.55112e-17
46 1 203.973 149.048 -5.55112e-17
47 2 77.1328 161.656 -5.55112e-17
48 2 172.818 46.3853 -5.55112e-17
49 1 204.462 134.746 -5.55112e-17
50 2 54.6445 193.365 -5.55112e-17
51 1 187.111 47.4368 -5.55112e-17
52 1 21.3645 116.516 -5.55112e-17
53 2 185.446 79.7874 -5.55112e-17
54 1 217.535 111.218 -5.55112e-17
55 2 134.079 117.082 -5.55112e-17
56 1 143.114 190.74 -5.55112e-17
57 2 37.9253 182.122 -5.55112e-17
58 1 119.49 184.775 -5.55112e-17
59 1 54.6695 156.874 -5.55112e-17
60 2 80.0293 130.875 -5.55112e-17
61 1 18.415 85.8875 -5.55112e-17
62 1 147.827 136.817 -5.55112e-17
63 2 67.6146 157.78 -5.55112e-17
64 1 80.2733 177.07 -5.55112e-17
65 2 167.563 78.1242 -5.55112e-17
66 2 19.8269 57.4183 -5.55112e-17
67 2 52.1101 49.0555 -5.55112e-17
68 1 216.313 175.691 -5.55112e-17
69 2 67.716 119.4 -5.55112e-17
70 1 64.359 96.726 -5.55112e-17
71 1 68.3987 1.25365 -5.55112e-17
72 2 43.2213 97.6633 -5.55112e-17
73 2 50.0903 161.425 -5.55112e-17
74 2 75.7018 125.724 -5.55112e-17
75 1 23.1995 212.901 -5.55112e-17
76 2 80.2999 106.275 -5.55112e-17
77 2 7.42254 6.98281 -5.55112e-17
78 1 208.451 12.1797 -5.55112e-17
79 2 209.872 53.1912 -5.55112e-17
80 1 218.619 218.887 -5.55112e-17
81 1 211.756 122.845 -5.55112e-17
82 1 130.707 60.7426 -5.55112e-17
83 1 32.1097 136.48 -5.55112e-17
84 2 58.4299 22.2513 -5.55112e-17
85 2 49.6404 149.264 -5.55112e-17
86 2 50.1285 128.483 -5.55112e-17
87 2 162.556 171.815 -5.55112e-17
88 1 170.971 216.478 -5.55112e-17
89 2 135.114 50.0908 -5.55112e-17
90 2 65.5953 94.0822 -5.55112e-17
91 2 112.447 188.196 -5.55112e-17
92 1 112.621 32.434 -5.55112e-17
93 2 61.9341 152.872 -5.55112e-17
94 2 90.3243 214.44 -5.55112e-17
95 1 127.874 194.973 -5.55112e-17
96 2 157.365 46.9966 -5.55112e-17
97 2 137.843 29.7428 -5.55112e-17
98 2 156.349 178.438 -5.55112e-17
99 1 41.8308 186.079 -5.55112e-17
100 2 5.59486 26.7413 -5.55112e-17
101 1 216.228 54.0236 -5.55112e-17
102 1 125.582 141.978 -5.55112e-17
103 2 162.441 58.7597 -5.55112e-17
104 2 48.7403 12.0383 -5.55112e-17
105 1 64.281 38.8337 -5.55112e-17
106 1 217.562 81.4693 -5.55112e-17
107 1 102.489 123.832 -5.55112e-17
108 1 161.732 146.086 -5.55112e-17
109 2 94.4466 2.48792 -5.55112e-17
110 2 181.557 163.519 -5.55112e-17
111 1 75.7853 189.456 -5.55112e-17
112 2 158.876 119.376 -5.55112e-17
113 1 106.087 41.1639 -5.55112e-17
114 1 115.054 78.6704 -5.55112e-17
115 2 9.37475 113.39 -5.55112e-17
116 2 191.489 64.844 -5.55112e-17
117 1 22.4369 58.4958 -5.55112e-17
118 1 7.78334 71.9441 -5.55112e-17
119 2 199.001 30.9848 -5.55112e-17
120 2 55.7053 43.6658 -5.55112e-17
121 1 129.479 82.6312 -5.55112e-17
122 2 152.485 97.9719 -5.55112e-17
123 2 161.958 179.82 -5.55112e-17
124 1 138.204 35.6657 -5.55112e-17
125 1 23.4214 120.374 -5.55112e-17
126 2 103.659 165.499 -5.55112e-17
127 2 170.039 122.005 -5.55112e-17
128 1 144.764 159.038 -5.55112e-17
129 1 146.513 111.153 -5.55112e-17
130 2 165.113 134.037 -5.55112e-17
131 1 57.5971 126.272 -5.55112e-17
132 1 76.1291 20.0136 -5.55112e-17
133 1 161.051 68.9511 -5.55112e-17
134 1 193.881 89.3267 -5.55112e-17
135 2 7.46173 142.938 -5.55112e-17
136 1 17.9084 159.964 -5.55112e-17
137 1 83.3158 150.029 -5.55112e-17
138 2 164.878 38.3367 -5.55112e-17
139 1 170.166 110.413 -5.55112e-17
140 1 67.7375 131.713 -5.55112e-17
141 1 214.854 118.545 -5.55112e-17
142 1 52.7292 210.053 -5.55112e-17
143 1 103.724 66.2179 -5.55112e-17
144 1 117.294 160.077 -5.55112e-17
145 2 26.4808 67.5284 -5.55112e-17
146 1 41.6612 99.9031 -5.55112e-17
147 2 169.837 91.7086 -5.55112e-17
148 1 201.565 103.128 -5.55112e-17
149 1 109.343 184.56 -5.55112e-17
150 2 64.8514 191.93 -5.55112e-17
151 1 32.1149 83.6417 -5.55112e-17
152 1 33.9293 15.6678 -5.55112e-17
153 2 95.5544 48.8309 -5.55112e-17
154 1 99.0944 149.043 -5.55112e-17
155 2 17.674 59.3482 -5.55112e-17
156 2 11.912 142.241 -5.55112e-17
157 2 121.47 68.9141 -5.55112e-17
158 2 2.68479 52.606 -5.55112e-17
159 2 80.9773 183.899 -5.55112e-17
160 2 64.0212 166.446 -5.55112e-17
161 2 78.1452 133.025 -5.55112e-17
162 1 132.951 54.0902 -5.55112e-17
163 1 86.4806 47.017 -5.55112e-17
164 2 151.138 213.465 -5.55112e-17
165 1 214.136 141.32 -5.55112e-17
166 2 32.8375 120.115 -5.55112e-17
167 1 110.169 53.83 -5.55112e-17
168 1 86.6517 133.678 -5.55112e-17
169 2 154.056 3.76105 -5.55112e-17
170 1 111.374 175.377 -5.55112e-17
171 1 67.0979 138.303 -5.55112e-17
172 1 214.22 73.0242 -5.55112e-17
173 1 209.013 3.78197 -5.55112e-17
174 2 9.78462 119.727 -5.55112e-17
175 2 142.924 45.4058 -5.55112e-17
176 1 180.508 139.888 -5.55112e-17
177 2 199.327 134.021 -5.55112e-17
178 1 204.537 74.854 -5.55112e-17
179 2 51.1767 114.735 -5.55112e-17
180 1 72.6982 70.3983 -5.55112e-17
181 1 69.959 23.813 -5.55112e-17
182 1 99.1694 32.1067 -5.55112e-17
183 1 81.0583 89.2178 -5.55112e-17
184 2 8.89288 81.762 -5.55112e-17
185 2 32.7216 215.754 -5.55112e-17
186 2 6.76491 78.9774 -5.55112e-17
187 2 74.9583 181.686 -5.55112e-17
188 2 50.9437 84.9686 -5.55112e-17
189 1 122.682 85.5374 -5.55112e-17
190 1 193.501 54.9636 -5.55112e-17
191 2 37.7027 11.6182 -5.55112e-17
192 2 179.674 102.285 -5.55112e-17
193 1 210.272 61.2261 -5.55112e-17
194 1 94.0324 44.3143 -5.55112e-17
195 2 117.496 27.6164 -5.55112e-17
196 1 155.081 217.382 -5.55112e-17
197 2 115.931 209.652 -5.55112e-17
198 2 21.5194 211.098 -5.55112e-17
199 2 170.028 130.483 -5.55112e-17
200 2 121.669 208.833 -5.55112e-17
201 2 215.884 44.2362 -5.55112e-17
202 1 9.23594 186.327 -5.55112e-17
203 1 201.262 13.6043 -5.55112e-17
204 2 48.8422 33.3481 -5.55112e-17
205 2 188.381 104.054 -5.55112e-17
206 2 99.2449 205.649 -5.55112e-17
207 1 108.607 157.747 -5.55112e-17
208 2 216.43 159.867 -5.55112e-17
209 2 184.246 216.707 -5.55112e-17
210 1 197.087 141.22 -5.55112e-17
211 1 64.4136 86.2734 -5.55112e-17
212 1 0.434939 10.4588 -5.55112e-17
213 1 206.979 98.3055 -5.55112e-17
214 2 56.442 145.209 -5.55112e-17
215 1 46.3373 37.4635 -5.55112e-17
216 1 191.454 110.804 -5.55112e-17
217 1 7.01574 44.0644 -5.55112e-17
218 2 0.787328 17.3104 -5.55112e-17
219 2 41.4637 117.018 -5.55112e-17
220 1 178.636 141.366 -5.55112e-17
221 2 155.82 145.331 -5.55112e-17
222 1 170.841 97.1578 -5.55112e-17
223 1 82.1204 37.1828 -5.55112e-17
224 2 56.579 152.315 -5.55112e-17
225 2 106.019 27.3702 -5.55112e-17
226 1 165.801 54.8618 -5.55112e-17
227 2 176.332 143.671 -5.55112e-17
228 2 92.0704 182.922 -5.55112e-17
229 1 210.542 8.72971 -5.55112e-17
230 1 108.233 106.216 -5.55112e-17
231 2 35.5273 119.028 -5.55112e-17
232 1 108.377 49.3394 -5.55112e-17
233 2 176.469 18.8624 -5.55112e-17
234 1 194.828 84.88 -5.55112e-17
235 1 176.065 138.256 -5.55112e-17
236 2 23.7287 189.08 -5.55112e-17
237 2 13.7208 14.9165 -5.55112e-17
238 2 109.549 189.303 -5.55112e-17
239 1 185.697 21.6646 -5.55112e-17
240 1 178.313 146.257 -5.55112e-17
241 2 199.885 83.0441 -5.55112e-17
242 1 97.9359 213.905 -5.55112e-17
243 2 158.912 133.296 -5.55112e-17
244 2 53.8547 154.388 -5.55112e-17
245 1 187.086 109.15 -5.55112e-17
246 2 180.118 184.734 -5.55112e-17
247 2 122.861 142.428 -5.55112e-17
248 1 196.998 4.42158 -5.55112e-17
249 1 46.2862 77.9085 -5.55112e-17
250 1 84.3669 177.267 -5.55112e-17
251 2 38.7139 49.9137 -5.55112e-17
252 1 215.257 49.4051 -5.55112e-17
253 2 117.824 40.6513 -5.55112e-17
254 2 86.5643 84.742 -5.55112e-17
255 2 188.327 33.5873 -5.55112e-17
256 1 170.965 16.3613 -5.55112e-17
257 2 38.5083 42.3591 -5.55112e-17
258 1 133.731 141.477 -5.55112e-17
259 2 42.03 169.181 -5.55112e-17
260 1 61.0144 44.7777 -5.55112e-17
261 2 12.8589 85.8607 -5.55112e-17
262 2 152.534 36.6621 -5.55112e-17
263 2 144.199 119.969 -5.55112e-17
264 1 2.96836 27.6601 -5.55112e-17
265 1 29.8825 198.743 -5.55112e-17
266 1 166.045 126.316 -5.55112e-17
267 2 40.8064 81.7694 -5.55112e-17
268 1 9.79068 93.5576 -5.55112e-17
269 2 171.382 146.758 -5.55112e-17
270 2 120.423 148.023 -5.55112e-17
271 2 94.4197 9.70781 -5.55112e-17
272 1 155.363 30.0487 -5.55112e-17
273 1 199.426 199.422 -5.55112e-17
274 1 32.0349 100.171 -5.55112e-17
275 1 213.334 1.6216 -5.55112e-17
276 1 21.215 180.219 -5.55112e-17
277 1 177.369 194.616 -5.55112e-17
278 2 210.511 14.0286 -5.55112e-17
279 2 28.2096 217.729 -5.55112e-17
280 1 58.0628 74.9295 -5.55112e-17
281 2 109.309 160.718 -5.55112e-17
282 2 175.445 152.641 -5.55112e-17
283 2 6.30004 206.973 -5.55112e-17
284 1 115.15 91.5498 -5.55112e-17
285 1 19.1922 199.925 -5.55112e-17
286 2 128.93 123.264 -5.55112e-17
287 2 20.2455 87.9091 -5.55112e-17
288 1 72.6908 33.6153 -5.55112e-17
289 2 207.061 212.888 -5.55112e-17
290 1 131.971 10.1448 -5.55112e-17
291 2 135.201 28.2404 -5.55112e-17
292 1 63.1393 102.534 -5.55112e-17
293 1 203.191 137.109 -5.55112e-17
294 1 21.3808 100.048 -5.55112e-17
295 2 38.8835 76.9413 -5.55112e-17
296 1 76.4288 82.6381 -5.55112e-17
297 1 144.879 34.6181 -5.55112e-17
298 2 124.438 208.256 -5.55112e-17
299 1 149.927 21.9245 -5.55112e-17
300 2 83.308 69.2627 -5.55112e-17
301 2 122.91 1.11309 -5.55112e-17
302 2 16.0075 169.344 -5.55112e-17
303 1 72.8632 192.827 -5.55112e-17
304 1 42.8689 119.432 -5.55112e-17
305 1 41.3382 79.1134 -5.55112e-17
306 2 188.685 111.727 -5.55112e-17
307 2 177.094 180.708 -5.55112e-17
308 2 91.8674 190.725 -5.55112e-17
309 1 79.8041 78.6458 -5.55112e-17
310 1 186.605 214.244 -5.55112e-17
311 1 17.7888 173.403 -5.55112e-17
312 2 108.464 96.6821 -5.55112e-17
313 2 187.136 55.8015 -5.55112e-17
314 1 148.013 188.361 -5.55112e-17
315 2 12.4344 115.385 -5.55112e-17
316 1 161.538 151.203 -5.55112e-17
317 1 202.649 172.242 -5.55112e-17
318 1 129.671 55.5135 -5.55112e-17
319 2 99.7039 62.1123 -5.55112e-17
320 1 47.7816 197.16 -5.55112e-17
321 1 54.7959 113.493 -5.55112e-17
322 1 117.031 83.9849 -5.55112e-17
323 2 78.9268 92.8039 -5.55112e-17
324 2 105.621 24.0921 -5.55112e-17
325 2 186.146 43.0003 -5.55112e-17
326 1 39.4153 47.3605 -5.55112e-17
327 1 45.6213 123.601 -5.55112e-17
328 2 53.7255 71.291 -5.55112e-17
329 2 62.3218 207.41 -5.55112e-17
330 2 193.43 210.929 -5.55112e-17
331 2 75.0891 71.4761 -5.55112e-17
332 2 43.1172 194.978 -5.55112e-17
333 2 72.2831 180.037 -5.55112e-17
334 2 167.831 57.1672 -5.55112e-17
335 1 127.418 150.746 -5.55112e-17
336 2 125.645 71.6253 -5.55112e-17
337 2 2.156 12.7194 -5.55112e-17
338 1 137.971 27.1268 -5.55112e-17
339 2 53.682 45.6112 -5.55112e-17
340 2 211.376 141.056 -5.55112e-17
341 2 185.82 5.64399 -5.55112e-17
342 2 144.239 216.413 -5.55112e-17
343 2 16.1822 178.263 -5.55112e-17
344 1 208.938 165.407 -5.55112e-17
345 2 105.092 56.2812 -5.55112e-17
346 2 127.463 153.385 -5.55112e-17
347 1 80.2761 0.904396 -5.55112e-17
348 1 162.187 109.2 -5.55112e-17
349 2 22.2232 5.64254 -5.55112e-17
350 2 87.4847 191.103 -5.55112e-17
351 1 30.2703 159.529 -5.55112e-17
352 1 26.9275 58.0388 -5.55112e-17
353 2 216.79 41.4738 -5.55112e-17
354 2 44.1652 100.694 -5.55112e-17
355 1 139.341 176.711 -5.55112e-17
356 2 14.5709 56.6385 -5.55112e-17
357 1 15.5048 157.14 -5.55112e-17
358 1 210.883 108.547 -5.55112e-17
359 1 1.02476 74.3153 -5.55112e-17
360 1 132.536 139.527 -5.55112e-17
361 2 19.4914 124.225 -5.55112e-17
362 2 136.19 25.117 -5.55112e-17
363 1 84.7745 20.8659 -5.55112e-17
364 2 203.83 196.342 -5.55112e-17
365 1 21.536 187.089 -5.55112e-17
366 1 187.901 106.668 -5.55112e-17
367 1 66.7725 58.4584 -5.55112e-17
368 1 182.543 144.047 -5.55112e-17
369 2 65.8031 184.452 -5.55112e-17
370 1 215.709 75.0077 -5.55112e-17
371 2 140.409 167.223 -5.55112e-17
372 1 51.0659 46.8014 -5.55112e-17
373 2 196.513 59.4811 -5.55112e-17
374 2 126.141 146.777 -5.55112e-17
375 1 117.115 108.629 -5.55112e-17
376 1 70.3923 131.966 -5.55112e-17
377 2 10.9964 148.971 -5.55112e-17
378 2 188.212 52.9871 -5.55112e-17
379 2 128.11 141.081 -5.55112e-17
380 1 193.201 126.355 -5.55112e-17
381 1 78.8522 171.998 -5.55112e-17
382 1 184.173 194.149 -5.55112e-17
383 1 33.7347 5.99867 -5.55112e-17
384 2 171.588 34.6794 -5.55112e-17
385 1 145.577 96.0376 -5.55112e-17
386 2 149.35 46.6814 -5.55112e-17
387 1 209.148 96.8351 -5.55112e-17
388 1 113.032 95.9835 -5.55112e-17
389 2 103.515 40.9179 -5.55112e-17
390 1 60.9948 117.094 -5.55112e-17
391 1 117.069 79.5288 -5.55112e-17
392 2 152.705 190.264 -5.55112e-17
393 2 186.743 76.8461 -5.55112e-17
394 1 205.809 206.647 -5.55112e-17
395 1 89.6223 125.024 -5.55112e-17
396 2 41.1333 209.799 -5.55112e-17
397 1 39.7055 142.047 -5.55112e-17
398 2 126.055 5.52762 -5.55112e-17
399 2 14.8663 195.252 -5.55112e-17
400 2 112.258 126.845 -5.55112e-17
401 2 13.5921 184.836 -5.55112e-17
402 1 190.717 33.9422 -5.55112e-17
403 1 198.26 61.6952 -5.55112e-17
404 2 177.32 111.326 -5.55112e-17
405 1 125.032 17.341 -5.55112e-17
406 2 164.715 62.7435 -5.55112e-17
407 1 110.057 56.7006 -5.55112e-17
408 1 90.0708 164.073 -5.55112e-17
409 2 199.866 63.4439 -5.55112e-17
410 2 175.455 22.293 -5.55112e-17
411 1 14.8318 8.48282 -5.55112e-17
412 1 88.9238 30.488 -5.55112e-17
413 1 172.53 210.261 -5.55112e-17
414 2 109.045 6.37535 -5.55112e-17
415 1 84.3359 206.3 -5.55112e-17
416 1 35.2616 148.282 -5.55112e-17
417 2 200.231 177.249 -5.55112e-17
418 2 86.6858 29.1008 -5.55112e-17
419 2 35.5214 187.396 -5.55112e-17
420 2 39.345 66.7711 -5.55112e-17
421 1 121.39 3.25444 -5.55112e-17
422 1 110.561 38.206 -5.55112e-17
423 2 82.3623 147.11 -5.55112e-17
424 2 118.557 162.495 -5.55112e-17
425 2 143.204 96.7956 -5.55112e-17
426 1 171.452 164.836 -5.55112e-17
427 2 31.7195 205.912 -5.55112e-17
428 1 55.7791 56.1613 -5.55112e-17
429 2 126.931 169.725 -5.55112e-17
430 2 77.6468 148.183 -5.55112e-17
431 1 58.7313 174.626 -5.55112e-17
432 2 60.9375 100.805 -5.55112e-17
433 1 169.95 29.6474 -5.55112e-17
434 1 189.541 132.782 -5.55112e-17
435 1 181.942 89.9185 -5.55112e-17
436 2 59.4721 191.632 -5.55112e-17
437 2 161.603 71.3511 -5.55112e-17
438 2 165.47 15.5904 -5.55112e-17
439 2 124.617 217.46 -5.55112e-17
440 2 82.4492 110.73 -5.55112e-17
441 1 69.1497 98.28 -5.55112e-17
442 1 78.518 99.1973 -5.55112e-17
443 2 87.5087 72.6338 -5.55112e-17
444 1 197.054 63.9517 -5.55112e-17
445 1 193.598 110.223 -5.55112e-17
446 2 71.3765 1.36881 -5.55112e-17
447 2 119.299 10.7913 -5.55112e-17
448 2 55.5176 138.714 -5.55112e-17
449 1 124.83 78.309 -5.55112e-17
450 1 63.1851 210.556 -5.55112e-17
451 1 65.8983 126.518 -5.55112e-17
452 2 73.7407 3.09493 -5.55112e-17
453 1 150.033 96.3911 -5.55112e-17
454 1 1.15653 56.239 -5.55112e-17
455 2 89.8605 94.0176 -5.55112e-17
456 1 65.6381 81.8386 -5.55112e-17
457 2 4.16493 192.741 -5.55112e-17
458 2 98.2159 13.5617 -5.55112e-17
459 2 137.105 136.518 -5.55112e-17
460 1 195.095 164.236 -5.55112e-17
461 1 146.118 187.059 -5.55112e-17
462 1 145.491 218.67 -5.55112e-17
463 2 26.0551 23.2614 -5.55112e-17
464 2 27.2553 73.8183 -5.55112e-17
465 1 165.527 113.558 -5.55112e-17
466 2 138.019 15.0853 -5.55112e-17
467 2 150.28 6.8758 -5.55112e-17
468 2 0.47145 129.232 -5.55112e-17
469 2 194.004 151.217 -5.55112e-17
470 2 192.111 75.1959 -5.55112e-17
471 2 83.898 84.6299 -5.55112e-17
472 2 150.58 188.052 -5.55112e-17
473 2 181.939 82.4468 -5.55112e-17
474 2 23.5983 117.541 -5.55112e-17
475 1 58.9619 153.413 -5.55112e-17
476 2 217.866 30.8148 -5.55112e-17
477 1 57.2493 133.291 -5.55112e-17
478 1 125.347 93.3876 -5.55112e-17
479 2 109.971 148.797 -5.55112e-17
480 1 205.242 50.4134 -5.55112e-17
481 1 124.144 24.6314 -5.55112e-17
482 2 208.928 217.626 -5.55112e-17
483 1 13.2289 62.4002 -5.55112e-17
484 1 90.7507 96.3522 -5.55112e-17
485 2 160.455 89.8873 -5.55112e-17
486 1 204.867 38.9285 -5.55112e-17
487 1 49.1104 179.688 -5.55112e-17
488 1 32.1462 61.2375 -5.55112e-17
489 1 65.8034 142.34 -5.55112e-17
490 1 136.593 203.474 -5.55112e-17
491 1 18.7136 77.707 -5.55112e-17
492 2 95.5069 214.187 -5.55112e-17
493 1 60.6762 13.2514 -5.55112e-17
494 2 82.5207 121.637 -5.55112e-17
495 1 24.0326 186.087 -5.55112e-17
496 1 73.569 87.0341 -5.55112e-17
497 1 48.3297 61.0642 -5.55112e-17
498 2 65.785 102.807 -5.55112e-17
499 2 104.431 91.8285 -5.55112e-17
500 2 65.9135 21.4295 -5.55112e-17
501 2 202.004 30.0123 -5.55112e-17
502 2 167.458 85.985 -5.55112e-17
503 2 78.6228 143.82 -5.55112e-17
504 2 163.588 11.2584 -5.55112e-17
505 2 103.746 87.1074 -5.55112e-17
506 1 89.1321 68.2701 -5.55112e-17
507 2 123.066 189.635 -5.55112e-17
508 1 2.527 125.775 -5.55112e-17
509 1 180.037 161.346 -5.55112e-17
510 1 115.794 169.224 -5.55112e-17
511 2 213.995 41.7244 -5.55112e-17
512 1 124.607 120.406 -5.55112e-17
513 2 139.709 204.14 -5.55112e-17
514 2 16.7933 16.2151 -5.55112e-17
515 1 19.0359 209.666 -5.55112e-17
516 2 145.3 138.094 -5.55112e-17
517 1 131.14 34.0383 -5.55112e-17
518 2 102.995 176.795 -5.55112e-17
519 1 110.943 139.352 -5.55112e-17
520 2 159.066 49.7392 -5.55112e-17
521 2 203.642 20.3884 -5.55112e-17
522 1 45.0281 62.6095 -5.55112e-17
523 1 1.52927 147.674 -5.55112e-17
524 2 201.846 58.2286 -5.55112e-17
525 2 52.98 40.1913 -5.55112e-17
526 2 66.1951 122.2 -5.55112e-17
527 1 68.1423 27.4013 -5.55112e-17
528 1 124.205 157.47 -5.55112e-17
529 2 195.708 61.9826 -5.55112e-17
530 2 136.868 74.027 -5.55112e-17
531 2 1.61036 209.383 -5.55112e-17
532 1 179.304 198.139 -5.55112e-17
533 2 197.925 193.642 -5.55112e-17
534 1 6.09679 145.608 -5.55112e-17
535 1 130.174 38.627 -5.55112e-17
536 2 8.71917 40.6582 -5.55112e-17
537 1 153.022 173.476 -5.55112e-17
538 1 138.81 104.639 -5.55112e-17
539 2 84.8957 159.45 -5.55112e-17
540 1 92.9249 122.027 -5.55112e-17
541 1 157.09 210.366 -5.55112e-17
542 1 211.226 103.55 -5.55112e-17
543 2 60.192 93.0663 -5.55112e-17
544 1 46.2957 201.701 -5.55112e-17
545 1 5.20988 102.654 -5.55112e-17
546 2 64.9073 208.897 -5.55112e-17
547 1 37.1222 68.3278 -5.55112e-17
548 1 33.714 101.987 -5.55112e-17
549 2 76.5569 173.951 -5.55112e-17
550 2 211.158 200.863 -5.55112e-17
551 2 199.872 158.332 -5.55112e-17
552 1 62.1749 204.515 -5.55112e-17
553 2 73.1639 126.914 -5.55112e-17
554 2 109.514 163.926 -5.55112e-17
555 2 74.2886 115.227 -5.55112e-17
556 1 116.054 133.37 -5.55112e-17
557 1 186.728 88.816 -5.55112e-17
558 1 212.072 161.357 -5.55112e-17
559 2 37.9918 148.335 -5.55112e-17
560 2 56.8812 155.023 -5.55112e-17
561 2 172.35 29.1969 -5.55112e-17
562 2 165.328 35.2666 -5.55112e-17
563 1 19.598 111.984 -5.55112e-17
564 2 79.5183 15.651 -5.55112e-17
565 2 36.0158 210.632 -5.55112e-17
566 2 85.3622 217.616 -5.55112e-17
567 1 113.853 200.064 -5.55112e-17
568 1 84.8044 162.31 -5.55112e-17
569 2 100.022 38.5793 -5.55112e-17
570 2 99.7323 168.878 -5.55112e-17
571 2 213.936 24.5078 -5.55112e-17
572 1 211.325 42.5581 -5.55112e-17
573 2 34.5304 84.6759 -5.55112e-17
574 2 49.2513 109.445 -5.55112e-17
575 1 209.906 28.2932 -5.55112e-17
576 1 47.0743 149.848 -5.55112e-17
577 1 162.601 130.62 -5.55112e-17
578 1 97.4594 192.088 -5.55112e-17
579 2 191.043 116.075 -5.55112e-17
580 1 23.7213 18.531 -5.55112e-17
581 1 32.4133 10.7934 -5.55112e-17
582 2 97.8652 79.8905 -5.55112e-17
583 2 119.61 66.3961 -5.55112e-17
584 2 46.9658 92.6071 -5.55112e-17
585 1 105.633 96.8266 -5.55112e-17
586 1 182.731 161.072 -5.55112e-17
587 1 38.353 22.8225 -5.55112e-17
588 2 30.6091 141.773 -5.55112e-17
589 1 76.4179 59.9594 -5.55112e-17
590 2 88.3438 173.839 -5.55112e-17
591 2 38.3259 139.328 -5.55112e-17
592 1 77.5561 72.2252 -5.55112e-17
593 1 147.91 173.296 -5.55112e-17
594 1 89.3824 84.7104 -5.55112e-17
595 1 113.366 87.7478 -5.55112e-17
596 2 189.671 148.69 -5.55112e-17
597 2 54.9991 211.278 -5.55112e-17
598 2 113.706 121.255 -5.55112e-17
599 2 72.6818 167.51 -5.55112e-17
600 2 182.274 25.2447 -5.55112e-17
601 1 136.573 42.8679 -5.55112e-17
602 1 35.1088 45.8717 -5.55112e-17
603 2 160.865 15.8796 -5.55112e-17
604 1 101.394 98.5422 -5.55112e-17
605 2 100.5 77.8481 -5.55112e-17
606 2 88.3787 49.127 -5.55112e-17
607 2 154.878 175.65 -5.55112e-17
608 2 1.75806 182.574 -5.55112e-17
609 1 217.019 130.718 -5.55112e-17
610 2 114.226 27.6421 -5.55112e-17
611 1 28.6568 185.521 -5.55112e-17
612 1 100.217 154.045 -5.55112e-17
613 2 27.6139 131.278 -5.55112e-17
614 1 154.217 19.5493 -5.55112e-17
615 1 150.639 30.4363 -5.55112e-17
616 2 107.4 99.2204 -5.55112e-17
617 1 153.768 177.898 -5.55112e-17
618 1 174.774 205.296 -5.55112e-17
619 1 200.285 209.932 -5.55112e-17
620 2 184.371 153.992 -5.55112e-17
621 2 141.958 99.9532 -5.55112e-17
622 2 50.8895 174.072 -5.55112e-17
623 2 55.6011 75.7683 -5.55112e-17
624 1 118.108 81.6027 -5.55112e-17
625 2 99.9341 118.974 -5.55112e-17
626 1 198.295 2.41471 -5.55112e-17
627 2 71.1991 203.579 -5.55112e-17
628 1 38.9495 112.532 -5.55112e-17
629 1 74.1179 15.0649 -5.55112e-17
630 2 15.5462 137.103 -5.55112e-17
631 2 127.928 39.747 -5.55112e-17
632 2 163.045 205.201 -5.55112e-17
633 2 186.683 192.894 -5.55112e-17
634 2 104.577 5.1107 -5.55112e-17
635 2 36.3662 215.688 -5.55112e-17
636 1 157.786 143.686 -5.55112e-17
637 1 84.8377 82.2284 -5.55112e-17
638 1 50.699 163.927 -5.55112e-17
639 2 120.255 45.9047 -5.55112e-17
640 2 151.872 175.898 -5.55112e-17
641 1 25.6491 115.336 -5.55112e-17
642 2 104.252 183.264 -5.55112e-17
643 1 70.0664 177.956 -5.55112e-17
644 2 108.932 77.826 -5.55112e-17
645 2 65.5862 55.5862 -5.55112e-17
646 1 67.0047 48.5402 -5.55112e-17
647 2 43.1874 60.4624 -5.55112e-17
648 2 134.996 14.8537 -5.55112e-17
649 1 18.1314 170.489 -5.55112e-17
650 1 55.7293 15.7512 -5.55112e-17
651 1 158.743 70.2123 -5.55112e-17
652 2 124.144 19.9636 -5.55112e-17
653 2 135.224 53.1068 -5.55112e-17
654 1 141.672 77.0852 -5.55112e-17
655 1 138.682 201.913 -5.55112e-17
656 1 212.85 164.055 -5.55112e-17
657 1 176.098 118.712 -5.55112e-17
658 2 147.648 23.7482 -5.55112e-17
659 2 86.8438 125.728 -5.55112e-17
660 1 44.1019 117.701 -5.55112e-17
661 2 104.041 168.948 -5.55112e-17
662 2 18.8639 212.239 -5.55112e-17
663 1 34.204 137.496 -5.55112e-17
664 1 54.5331 218.884 -5.55112e-17
665 1 218.72 183.922 -5.55112e-17
666 1 170.005 151.076 -5.55112e-17
667 1 102.517 131.504 -5.55112e-17
668 1 166.446 98.164 -5.55112e-17
669 1 22.3381 129.815 -5.55112e-17
670 2 43.8939 36.3281 -5.55112e-17
671 1 9.74725 200.328 -5.55112e-17
672 1 109.115 28.0336 -5.55112e-17
673 2 109.215 90.4479 -5.55112e-17
674 2 121.129 186.834 -5.55112e-17
675 2 14.8497 142.549 -5.55112e-17
676 1 150.557 113.691 -5.55112e-17
677 2 140.904 85.38 -5.55112e-17
678 1 178.167 126.039 -5.55112e-17
679 1 133.362 104.043 -5.55112e-17
680 2 196.796 186.171 -5.55112e-17
681 1 208.133 35.8659 -5.55112e-17
682 1 16.4022 80.8196 -5.55112e-17
683 2 101.131 203.081 -5.55112e-17
684 1 81.7733 50.8408 -5.55112e-17
685 1 158.079 148.787 -5.55112e-17
686 1 110.626 51.3173 -5.55112e-17
687 1 25.0396 191.916 -5.55112e-17
688 1 100.386 80.4219 -5.55112e-17
689 2 184.864 165.695 -5.55112e-17
690 1 50.6215 146.89 -5.55112e-17
691 2 48.013 203.704 -5.55112e-17
692 2 98.7292 143.39 -5.55112e-17
693 1 22.0957 2.98419 -5.55112e-17
694 2 2.74003 49.3447 -5.55112e-17
695 2 34.1551 81.9038 -5.55112e-17
696 2 11.8129 4.07236 -5.55112e-17
697 1 9.0151 212.178 -5.55112e-17
698 2 37.8471 73.8051 -5.55112e-17
699 1 124.691 98.8419 -5.55112e-17
700 2 6.9515 136.302 -5.55112e-17
701 2 27.5128 159.262 -5.55112e-17
702 1 44.6269 9.30008 -5.55112e-17
703 1 141.642 215.756 -5.55112e-17
704 1 92.3643 94.3648 -5.55112e-17
705 1 195.268 136.407 -5.55112e-17
706 1 211.511 127.838 -5.55112e-17
707 1 17.9256 138.334 -5.55112e-17
708 2 104.804 199.087 -5.55112e-17
709 1 191.816 24.5312 -5.55112e-17
710 2 116.53 203.672 -5.55112e-17
711 2 118.431 60.6254 -5.55112e-17
712 1 6.35193 194.315 -5.55112e-17
713 1 210.011 101.666 -5.55112e-17
714 2 85.1751 74.3998 -5.55112e-17
715 2 208.902 133.29 -5.55112e-17
716 1 41.9716 5.82712 -5.55112e-17
717 1 35.0045 91.3894 -5.55112e-17
718 2 1.50124 38.4402 -5.55112e-17
719 1 52.2918 217.764 -5.55112e-17
720 2 194.413 196.883 -5.55112e-17
721 2 204.52 24.5394 -5.55112e-17
722 2 83.8763 183.071 -5.55112e-17
723 2 165.593 153.357 -5.55112e-17
724 2 185.418 65.2756 -5.55112e-17
725 2 98.3165 25.0336 -5.55112e-17
726 2 74.1817 92.2684 -5.55112e-17
727 2 170.319 116.842 -5.55112e-17
728 1 152.772 160.879 -5.55112e-17
729 2 183.635 15.2992 -5.55112e-17
730 2 55.5448 95.5216 -5.55112e-17
731 1 63.4531 45.9969 -5.55112e-17
732 2 93.4761 200.611 -5.55112e-17
733 2 5.91008 73.6294 -5.55112e-17
734 2 203.219 68.1935 -5.55112e-17
735 2 20.5695 84.6767 -5.55112e-17
736 1 77.4202 166.93 -5.55112e-17
737 2 207.891 158.425 -5.55112e-17
738 2 137.778 98.2664 -5.55112e-17
739 2 193.19 174.223 -5.55112e-17
740 2 153.62 75.4791 -5.55112e-17
741 2 32.7908 13.2601 -5.55112e-17
742 1 100.341 114.351 -5.55112e-17
743 2 20.2179 175.268 -5.55112e-17
744 1 109.273 58.8026 -5.55112e-17
745 2 121.01 145.176 -5.55112e-17
746 1 156.101 49.4289 -5.55112e-17
747 1 107.052 45.1798 -5.55112e-17
748 2 32.1948 0.820775 -5.55112e-17
749 1 98.5515 173.995 -5.55112e-17
750 1 135.647 96.907 -5.55112e-17
751 1 11.2879 66.0188 -5.55112e-17
752 2 166.18 3.95326 -5.55112e-17
753 1 25.2321 84.9217 -5.55112e-17
754 2 199.609 101.046 -5.55112e-17
755 1 196.836 134.641 -5.55112e-17
756 2 143.205 27.583 -5.55112e-17
757 1 63.4467 64.3183 -5.55112e-17
758 2 170.019 37.2824 -5.55112e-17
759 1 137.014 79.5609 -5.55112e-17
760 1 11.8691 106.346 -5.55112e-17
761 2 112.543 197.519 -5.55112e-17
762 1 217.538 78.8028 -5.55112e-17
763 2 153.386 128.482 -5.55112e-17
764 2 197.038 126.115 -5.55112e-17
765 1 216.894 137.98 -5.55112e-17
766 2 208.847 188.847 -5.55112e-17
767 2 203.71 188.652 -5.55112e-17
768 2 123.193 33.9194 -5.55112e-17
769 2 2.83274 109.028 -5.55112e-17
770 1 26.0593 50.5543 -5.55112e-17
771 1 107.957 25.8612 -5.55112e-17
772 1 106.593 212.155 -5.55112e-17
773 2 157.197 19.65 -5.55112e-17
774 1 74.4771 102.094 -5.55112e-17
775 1 47.7144 161.283 -5.55112e-17
776 2 127.968 21.9753 -5.55112e-17
777 2 24.6041 38.5891 -5.55112e-17
778 1 159.334 72.742 -5.55112e-17
779 1 196.566 18.9462 -5.55112e-17
780 2 194.959 171.708 -5.55112e-17
781 1 25.7721 182.227 -5.55112e-17
782 2 66.2015 160.33 -5.55112e-17
783 1 192.766 22.3178 -5.55112e-17
784 2 59.5511 150.949 -5.55112e-17
785 1 104.163 34.0485 -5.55112e-17
786 1 40.7972 202.783 -5.55112e-17
787 2 84.1305 118.163 -5.55112e-17
788 2 62.6284 83.9615 -5.55112e-17
789 2 131.082 21.6416 -5.55112e-17
790 2 145.601 54.0359 -5.55112e-17
791 2 218.916 132.505 -5.55112e-17
792 1 91.9789 98.9548 -5.55112e-17
793 1 144.765 104.266 -5.55112e-17
794 2 113.009 180.677 -5.55112e-17
795 2 181.396 92.2754 -5.55112e-17
796 1 60.4148 121.861 -5.55112e-17
797 1 55.0005 41.2688 -5.55112e-17
798 1 56.8946 170.295 -5.55112e-17
799 2 39.8745 55.8613 -5.55112e-17
800 1 24.4021 171.491 -5.55112e-17
801 2 123.424 137.488 -5.55112e-17
802 1 55.6782 159.784 -5.55112e-17
803 1 177.71 98.1175 -5.55112e-17
804 1 74.9438 7.54403 -5.55112e-17
805 2 213.317 133.363 -5.55112e-17
806 2 178.815 83.8542 -5.55112e-17
807 2 77.8118 0.168577 -5.55112e-17
808 2 79.8291 167.292 -5.55112e-17
809 1 126.681 105.768 -5.55112e-17
810 2 21.2503 18.4917 -5.55112e-17
811 2 174.402 178.469 -5.55112e-17
812 1 148.7 153.32 -5.55112e-17
813 1 82.676 166.415 -5.55112e-17
814 1 118.308 199.085 -5.55112e-17
815 1 142.157 211.405 -5.55112e-17
816 1 55.5648 108.567 -5.55112e-17
817 2 32.5432 53.8121 -5.55112e-17
818 2 107.321 137.908 -5.55112e-17
819 2 191.096 88.9737 -5.55112e-17
820 1 175.329 44.9388 -5.55112e-17
821 1 156.797 160.666 -5.55112e-17
822 2 70.2905 166.841 -5.55112e-17
823 1 77.2828 145.901 -5.55112e-17
824 1 185.96 212.1 -5.55112e-17
825 1 14.0732 17.3652 -5.55112e-17
826 2 123.958 186.887 -5.55112e-17
827 2 6.05936 148.26 -5.55112e-17
828 1 68.0699 93.0813 -5.55112e-17
829 2 172.288 66.1986 -5.55112e-17
830 1 152.365 95.3626 -5.55112e-17
831 2 35.6102 43.1124 -5.55112e-17
832 2 105.097 43.5455 -5.55112e-17
833 2 77.1819 111.296 -5.55112e-17
834 1 150.207 98.8353 -5.55112e-17
835 1 147.506 83.1074 -5.55112e-17
836 1 190.957 202.146 -5.55112e-17
837 2 112.75 90.1582 -5.55112e-17
838 2 5.06056 96.7347 -5.55112e-17
839 1 197.368 97.0884 -5.55112e-17
840 2 169.49 11.035 -5.55112e-17
841 2 1.61571 185.673 -5.55112e-17
842 1 192.299 47.5939 -5.55112e-17
843 1 199.74 145.912 -5.55112e-17
844 2 68.0974 46.4287 -5.55112e-17
845 1 117.801 218.651 -5.55112e-17
846 2 34.5072 48.6446 -5.55112e-17
847 1 185.85 34.1211 -5.55112e-17
848 2 176.425 140.946 -5.55112e-17
849 1 6.31459 171.841 -5.55112e-17
850 2 131.859 31.5122 -5.55112e-17
851 2 162.352 66.8551 -5.55112e-17
852 1 24.3298 41.1405 -5.55112e-17
853 1 110.493 205.898 -5.55112e-17
854 2 128.299 217.646 -5.55112e-17
855 2 183.287 151.255 -5.55112e-17
856 1 51.6939 117.212 -5.55112e-17