ITEM: TIMESTEP
0
ITEM: NUMBER OF ATOMS
7200
ITEM: BOX BOUNDS xy xz yz pp pp pp
0.0000000000000000e+00 2.1900000000000000e+02 0.0000000000000000e+00
0.0000000000000000e+00 2.1900000000000000e+02 0.0000000000000000e+00
-3.6499999999999999e-01 3.6499999999999999e-01 0.0000000000000000e+00
ITEM: ATOMS id type x y z
1 1 183.495 12.4073 -5.55112e-17
2 2 186.979 185.829 -5.55112e-17
3 2 144.724 189.588 -5.55112e-17
4 1 122.503 110.389 -5.55112e-17
5 1 102.101 125.644 -5.55112e-17
6 1 107.606 26.1554 -5.55112e-17
7 2 160.468 125.424 -5.55112e-17
8 2 70.4645 26.5373 -5.55112e-17
9 1 23.1685 215.664 -5.55112e-17
10 2 52.6628 166.634 -5.55112e-17
11 2 210.089 100.349 -5.55112e-17
12 1 34.2788 196.462 -5.55112e-17
13 2 190.889 56.2449 -5.55112e-17
14 1 57.2684 181.776 -5.55112e-17
15 2 194.103 218.816 -5.55112e-17
16 2 216.964 85.5138 -5.55112e-17
17 1 68.1414 74.3205 -5.55112e-17
18 2 10.693 172.256 -5.55112e-17
19 1 92.9403 130.506 -5.55112e-17
20 1 72.2676 11.5704 -5.55112e-17
21 1 158.77 10.5269 -5.55112e-17
22 2 29.469 209.955 -5.55112e-17
23 2 41.3691 209.007 -5.55112e-17
24 2 217.862 102.098 -5.55112e-17
25 2 28.2619 204.823 -5.55112e-17
26 2 149.72 28.1741 -5.55112e-17
27 1 217.482 162.099 -5.55112e-17
28 2 54.2818 154.582 -5.55112e-17
29 2 83.2158 4.76211 -5.55112e-17
30 2 132.754 37.8306 -5.55112e-17
31 2 155.897 83.8785 -5.55112e-17
32 1 48.5481 108.737 -5.55112e-17
33 2 144.56 87.5956 -5.55112e-17
34 2 14.6581 97.1446 -5.55112e-17
35 2 127.661 11.1381 -5.55112e-17
36 1 162.266 147.033 -5.55112e-17
37 1 134.035 185.083 -5.55112e-17
38 2 208.654 157.775 -5.55112e-17
39 1 8.07296 38.175 -5.55112e-17
40 2 194.814 71.7894 -5.55112e-17
41 1 191.902 72.1918 -5.55112e-17
42 1 54.877 59.3598 -5.55112e-17
43 1 209.92 132.049 -5.55112e-17
44 1 155.358 188.242 -5.55112e-17
45 2 158.862 61.2347 -5.55112e-17
46 1 124.704 192.977 -5.55112e-17
47 2 88.335 75.1162 -5.55112e-17
48 2 153.08 126.341 -5.55112e-17
49 1 195.152 199.757 -5.55112e-17
50 2 25.8941 49.2483 -5.55112e-17
51 1 186.978 2.45019 -5.55112e-17
52 1 112.087 45.2582 -5.55112e-17
53 2 55.8867 196.459 -5.55112e-17
54 1 41.0814 7.6208 -5.55112e-17
55 2 53.3622 141.133 -5.55112e-17
56 1 31.0501 132.203 -5.55112e-17
57 2 58.3501 133.511 -5.55112e-17
58 1 183.05 36.57 -5.55112e-17
59 1 157.056 86.4346 -5.55112e-17
60 2 205.506 59.2502 -5.55112e-17
61 1 155.946 163.572 -5.55112e-17
62 1 109.387 112.961 -5.55112e-17
63 2 109.324 38.5107 -5.55112e-17
64 1 31.0258 19.4496 -5.55112e-17
65 2 157.22 152.226 -5.55112e-17
66 2 13.1513 154.314 -5.55112e-17
67 2 183.234 104.096 -5.55112e-17
68 1 136.161 83.4103 -5.55112e-17
69 2 108.913 169.185 -5.55112e-17
70 1 141.72 97.9417 -5.55112e-17
71 1 197.324 145.63 -5.55112e-17
72 2 45.2296 157.227 -5.55112e-17
73 2 189.847 182.286 -5.55112e-17
74 2 114.414 64.5433 -5.55112e-17
75 1 14.4275 136.407 -5.55112e-17
76 2 138.253 206.623 -5.55112e-17
77 2 168.654 14.4252 -5.55112e-17
78 1 91.4447 211.872 -5.55112e-17
79 2 60.8695 75.7182 -5.55112e-17
80 1 54.2112 28.8338 -5.55112e-17
81 1 182.128 210.872 -5.55112e-17
82 1 175.188 43.0335 -5.55112e-17
83 1 71.7016 90.7669 -5.55112e-17
84 2 141.599 179.634 -5.55112e-17
85 2 150.625 144.818 -5.55112e-17
86 2 51.1817 68.6726 -5.55112e-17
87 2 37.5268 83.6039 -5.55112e-17
88 1 80.7012 157.418 -5.55112e-17
89 2 199.379 105.282 -5.55112e-17
90 2 126.882 35.7214 -5.55112e-17
91 2 10.8779 182.727 -5.55112e-17
92 1 28.3079 215.089 -5.55112e-17
93 2 110.209 155.537 -5.55112e-17
94 2 113.314 144.704 -5.55112e-17
95 1 210.932 51.5119 -5.55112e-17
96 2 31.2371 55.3844 -5.55112e-17
97 2 5.42993 212.06 -5.55112e-17
98 2 35.8457 184.474 -5.55112e-17
99 1 108.572 10.0628 -5.55112e-17
100 2 158.448 66.0583 -5.55112e-17
101 1 181.633 108.646 -5.55112e-17
102 1 66.293 164.023 -5.55112e-17
103 2 204.719 100.555 -5.55112e-17
104 2 103.948 75.4754 -5.55112e-17
105 1 160.356 59.1304 -5.55112e-17
106 1 190.056 53.6602 -5.55112e-17
107 1 8.51101 106.267 -5.55112e-17
108 1 69.5445 210.657 -5.55112e-17
109 2 217.264 39.2548 -5.55112e-17
110 2 145.356 29.815 -5.55112e-17
111 1 53.0709 92.4328 -5.55112e-17
112 2 8.10877 50.4379 -5.55112e-17
113 1 135.631 10.74 -5.55112e-17
114 1 91.8701 82.6332 -5.55112e-17
115 2 29.8849 61.3834 -5.55112e-17
116 2 184.851 14.8316 -5.55112e-17
117 1 159.551 112.829 -5.55112e-17
118 1 83.1705 93.9122 -5.55112e-17
119 2 99.513 139.982 -5.55112e-17
120 2 200.716 58.3864 -5.55112e-17
121 1 204.803 138.904 -5.55112e-17
122 2 142.963 129.92 -5.55112e-17
123 2 6.25458 129.57 -5.55112e-17
124 1 160.65 201.517 -5.55112e-17
125 1 88.6736 195.277 -5.55112e-17
126 2 94.3253 83.5245 -5.55112e-17
127 2 208.77 110.649 -5.55112e-17
128 1 121.366 104.959 -5.55112e-17
129 1 144.516 194.923 -5.55112e-17
130 2 124.346 53.994 -5.55112e-17
131 1 127.052 55.0531 -5.55112e-17
132 1 140.144 21.7371 -5.55112e-17
133 1 181.319 105.92 -5.55112e-17
134 1 80.7907 191.106 -5.55112e-17
135 2 176.167 63.7865 -5.55112e-17
136 1 190.241 118.346 -5.55112e-17
137 1 54.2726 22.7164 -5.55112e-17
138 2 155.14 156.543 -5.55112e-17
139 1 133.119 11.429 -5.55112e-17
140 1 145.377 208.69 -5.55112e-17
141 1 51.4995 71.1455 -5.55112e-17
142 1 215.01 195.111 -5.55112e-17
143 1 26.3712 25.9832 -5.55112e-17
144 1 46.6507 97.8516 -5.55112e-17
145 2 192.611 79.3433 -5.55112e-17
146 1 155.073 132.491 -5.55112e-17
147 2 16.2829 134.457 -5.55112e-17
148 1 24.1993 132.826 -5.55112e-17
149 1 147.475 190.46 -5.55112e-17
150 2 64.9432 51.9243 -5.55112e-17
151 1 132.229 138.385 -5.55112e-17
152 1 157.4 158.038 -5.55112e-17
153 2 123.973 130.432 -5.55112e-17
154 1 184.034 53.8948 -5.55112e-17
155 2 203.206 39.8276 -5.55112e-17
156 2 112.503 194.326 -5.55112e-17
157 2 168.471 25.9645 -5.55112e-17
158 2 28.274 8.13945 -5.55112e-17
159 2 12.3195 158.841 -5.55112e-17
160 2 114.928 53.0389 -5.55112e-17
161 2 129.496 138.964 -5.55112e-17
162 1 21.7553 65.2276 -5.55112e-17
163 1 189.242 33.2895 -5.55112e-17
164 2 108.843 135.45 -5.55112e-17
165 1 49.5303 72.6446 -5.55112e-17
166 2 9.71202 204.22 -5.55112e-17
167 1 106.283 168.583 -5.55112e-17
168 1 211.219 102.799 -5.55112e-17
169 2 104.641 200.444 -5.55112e-17
170 1 65.7027 206.808 -5.55112e-17
171 1 136.867 92.541 -5.55112e-17
172 1 200.031 199.665 -5.55112e-17
173 1 39.9934 202.273 -5.55112e-17
174 2 38.7461 173.131 -5.55112e-17
175 2 50.4372 201.048 -5.55112e-17
176 1 120.402 151.981 -5.55112e-17
177 2 107.31 12.8531 -5.55112e-17
178 1 25.7076 8.10149 -5.55112e-17
179 2 107.547 201.647 -5.55112e-17
180 1 47.8449 74.1918 -5.55112e-17
181 1 15.9288 119.131 -5.55112e-17
182 1 110.643 89.4129 -5.55112e-17
183 1 64.1307 168.041 -5.55112e-17
184 2 157.985 25.8323 -5.55112e-17
185 2 189.737 78.2134 -5.55112e-17
186 2 73.7492 206.808 -5.55112e-17
187 2 163.138 202.547 -5.55112e-17
188 2 62.1209 32.2034 -5.55112e-17
189 1 183.272 58.7364 -5.55112e-17
190 1 192.908 53.5677 -5.55112e-17
191 2 36.1533 104.766 -5.55112e-17
192 2 91.4598 61.3511 -5.55112e-17
193 1 108.314 166.803 -5.55112e-17
194 1 27.333 5.95035 -5.55112e-17
195 2 58.642 119.795 -5.55112e-17
196 1 0.814666 0.139225 -5.55112e-17
197 2 117.964 45.4995 -5.55112e-17
198 2 206.647 27.399 -5.55112e-17
199 2 97.6665 173.904 -5.55112e-17
200 2 98.4769 31.7624 -5.55112e-17
201 2 101.984 123.016 -5.55112e-17
202 1 44.8288 33.16 -5.55112e-17
203 1 18.6704 45.6937 -5.55112e-17
204 2 46.7379 76.5193 -5.55112e-17
205 2 181.458 178.504 -5.55112e-17
206 2 170.863 127.755 -5.55112e-17
207 1 74.1622 187.251 -5.55112e-17
208 2 133.502 57.3287 -5.55112e-17
209 2 32.8797 141.765 -5.55112e-17
210 1 180.426 113.475 -5.55112e-17
211 1 208.541 35.0227 -5.55112e-17
212 1 207.98 84.9768 -5.55112e-17
213 1 127.799 123.743 -5.55112e-17
214 2 12.7854 11.5364 -5.55112e-17
215 1 3.35451 139.49 -5.55112e-17
216 1 51.273 50.2895 -5.55112e-17
217 1 163.744 61.9653 -5.55112e-17
218 2 200.993 121.277 -5.55112e-17
219 2 136.664 189.869 -5.55112e-17
220 1 119.616 1.38945 -5.55112e-17
221 2 82.403 7.48407 -5.55112e-17
222 1 157.417 154.845 -5.55112e-17
223 1 46.043 120.301 -5.55112e-17
224 2 145.428 71.1452 -5.55112e-17
225 2 174.662 170.279 -5.55112e-17
226 1 197.231 9.81511 -5.55112e-17
227 2 204.01 214.665 -5.55112e-17
228 2 117.891 57.5723 -5.55112e-17
229 1 43.6407 20.5682 -5.55112e-17
230 1 4.28928 56.5209 -5.55112e-17
231 2 137.547 160.876 -5.55112e-17
232 1 16.1444 205.175 -5.55112e-17
233 2 76.5138 193.901 -5.55112e-17
234 1 218.899 59.2515 -5.55112e-17
235 1 149.55 106.612 -5.55112e-17
236 2 152.906 53.3174 -5.55112e-17
237 2 102.402 203.161 -5.55112e-17
238 2 94.8744 140.8 -5.55112e-17
239 1 36.7757 216.02 -5.55112e-17
240 1 129.036 90.7891 -5.55112e-17
241 2 3.22521 124.653 -5.55112e-17
242 1 194.267 28.2157 -5.55112e-17
243 2 214.263 130.026 -5.55112e-17
244 2 36.9867 190.102 -5.55112e-17
245 1 174.172 20.3259 -5.55112e-17
246 2 89.9627 84.3827 -5.55112e-17
247 2 197.228 148.107 -5.55112e-17
248 1 38.983 25.765 -5.55112e-17
249 1 131.259 108.456 -5.55112e-17
250 1 134.768 28.0773 -5.55112e-17
251 2 101.962 42.4977 -5.55112e-17
252 1 111.035 157.766 -5.55112e-17
253 2 95.7488 102.116 -5.55112e-17
254 2 179.778 205.487 -5.55112e-17
255 2 126.335 44.3896 -5.55112e-17
256 1 2.95025 179.4 -5.55112e-17
257 2 33.0714 193.735 -5.55112e-17
258 1 210.497 80.7262 -5.55112e-17
259 2 162.227 141.885 -5.55112e-17
260 1 43.0031 191.418 -5.55112e-17
261 2 143.275 176.946 -5.55112e-17
262 2 186.807 106.809 -5.55112e-17
263 2 94.4951 172.723 -5.55112e-17
264 1 199.091 36.1132 -5.55112e-17
265 1 157.46 186.883 -5.55112e-17
266 1 92.6676 196.353 -5.55112e-17
267 2 110.176 15.1226 -5.55112e-17
268 1 218.347 48.5404 -5.55112e-17
269 2 9.97319 113.431 -5.55112e-17
270 2 180.882 146.941 -5.55112e-17
271 2 187.729 94.5962 -5.55112e-17
272 1 60.8082 30.0489 -5.55112e-17
273 1 71.0251 82.9317 -5.55112e-17
274 1 37.6267 192.725 -5.55112e-17
275 1 146.073 110.394 -5.55112e-17
276 1 198.817 74.6321 -5.55112e-17
277 1 97.1598 36.1662 -5.55112e-17
278 2 60.9783 145.319 -5.55112e-17
279 2 159.688 86.4739 -5.55112e-17
280 1 117.156 211.325 -5.55112e-17
281 2 168.198 179.565 -5.55112e-17
282 2 75.4754 126.953 -5.55112e-17
283 2 218.607 150.823 -5.55112e-17
284 1 125.562 113.78 -5.55112e-17
285 1 73.4231 165.236 -5.55112e-17
286 2 30.3254 179.9 -5.55112e-17
287 2 95.5723 110.419 -5.55112e-17
288 1 104.36 123.606 -5.55112e-17
289 2 187.945 57.2364 -5.55112e-17
290 1 96.4006 20.5391 -5.55112e-17
291 2 99.2827 187.139 -5.55112e-17
292 1 77.4724 125.371 -5.55112e-17
293 1 159.232 167.123 -5.55112e-17
294 1 29.7611 177.193 -5.55112e-17
295 2 46.8882 145.414 -5.55112e-17
296 1 193.02 177.772 -5.55112e-17
297 1 2.53159 18.4387 -5.55112e-17
298 2 30.3427 140.271 -5.55112e-17
299 1 176.843 55.9755 -5.55112e-17
300 2 187.084 193.458 -5.55112e-17
301 2 171.977 18.7568 -5.55112e-17
302 2 163.023 89.5006 -5.55112e-17
303 1 2.31356 151.313 -5.55112e-17
304 1 123.896 105.863 -5.55112e-17
305 1 92.1564 177.626 -5.55112e-17
306 2 83.9173 17.5352 -5.55112e-17
307 2 150.521 168.269 -5.55112e-17
308 2 142.694 22.6896 -5.55112e-17
309 1 71.3405 71.4145 -5.55112e-17
310 1 187.723 188.307 -5.55112e-17
311 1 150.389 109.159 -5.55112e-17
312 2 135.439 13.3438 -5.55112e-17
313 2 155.501 18.525 -5.55112e-17
314 1 190.327 58.7524 -5.55112e-17
315 2 57.0775 107.727 -5.55112e-17
316 1 94.5801 35.3274 -5.55112e-17
317 1 133.259 175.714 -5.55112e-17
318 1 216.226 135.406 -5.55112e-17
319 2 73.8868 201.631 -5.55112e-17
320 1 213.65 47.7593 -5.55112e-17
321 1 52.7509 87.1891 -5.55112e-17
322 1 51.3066 147.997 -5.55112e-17
323 2 19.6419 138.614 -5.55112e-17
324 2 10.7643 94.7486 -5.55112e-17
325 2 216.588 13.7802 -5.55112e-17
326 1 185.475 0.563577 -5.55112e-17
327 1 34.7439 47.0681 -5.55112e-17
328 2 32.504 190.76 -5.55112e-17
329 2 27.5462 78.6072 -5.55112e-17
330 2 153.541 39.3117 -5.55112e-17
331 2 186.787 67.6581 -5.55112e-17
332 2 121.005 114.672 -5.55112e-17
333 2 28.4481 150.602 -5.55112e-17
334 2 216.314 18.2468 -5.55112e-17
335 1 167.169 211.599 -5.55112e-17
336 2 27.408 141.479 -5.55112e-17
337 2 43.5151 7.92392 -5.55112e-17
338 1 208.071 95.4338 -5.55112e-17
339 2 15.1844 151.952 -5.55112e-17
340 2 177.246 214.527 -5.55112e-17
341 2 102.514 62.9496 -5.55112e-17
342 2 180.349 168.18 -5.55112e-17
343 2 176.977 4.74515 -5.55112e-17
344 1 88.0824 108.337 -5.55112e-17
345 2 27.1678 212.384 -5.55112e-17
346 2 75.9278 71.8749 -5.55112e-17
347 1 147.23 98.7121 -5.55112e-17
348 1 181.966 3.54695 -5.55112e-17
349 2 172.473 70.7002 -5.55112e-17
350 2 78.3892 179.17 -5.55112e-17
351 1 173.49 138.769 -5.55112e-17
352 1 212.974 163.261 -5.55112e-17
353 2 140.792 131.953 -5.55112e-17
354 2 191.607 179.8 -5.55112e-17
355 1 215.787 156.999 -5.55112e-17
356 2 113.526 0.955007 -5.55112e-17
357 1 127.579 192.85 -5.55112e-17
358 1 77.6849 25.2886 -5.55112e-17
359 1 34.9126 143.622 -5.55112e-17
360 1 57.9644 13.2896 -5.55112e-17
361 2 198.418 67.017 -5.55112e-17
362 2 171.62 94.0611 -5.55112e-17
363 1 78.3918 215.782 -5.55112e-17
364 2 216.809 46.5609 -5.55112e-17
365 1 5.89391 164.189 -5.55112e-17
366 1 82.7983 173.089 -5.55112e-17
367 1 164.882 105.681 -5.55112e-17
368 1 20.9709 163.818 -5.55112e-17
369 2 81.7898 143.789 -5.55112e-17
370 1 9.87237 135.792 -5.55112e-17
371 2 71.3981 110.995 -5.55112e-17
372 1 88.0549 5.99675 -5.55112e-17
373 2 117.912 208.658 -5.55112e-17
374 2 177.773 99.091 -5.55112e-17
375 1 136.914 26.1365 -5.55112e-17
376 1 122.101 147.744 -5.55112e-17
377 2 95.9201 73.5964 -5.55112e-17
378 2 214.983 106.585 -5.55112e-17
379 2 172.101 183.533 -5.55112e-17
380 1 199.81 33.6019 -5.55112e-17
381 1 174.296 68.8838 -5.55112e-17
382 1 122.984 26.4301 -5.55112e-17
383 1 110.945 81.0956 -5.55112e-17
384 2 54.4569 100.988 -5.55112e-17
385 1 66.197 148.818 -5.55112e-17
386 2 177.527 168.587 -5.55112e-17
387 1 34.8965 106.914 -5.55112e-17
388 1 144.146 164.274 -5.55112e-17
389 2 215.776 121.063 -5.55112e-17
390 1 101.384 65.2976 -5.55112e-17
391 1 203.818 217.403 -5.55112e-17
392 2 1.84477 102.595 -5.55112e-17
393 2 195.034 175.396 -5.55112e-17
394 1 35.6702 204.627 -5.55112e-17
395 1 20.7265 215.137 -5.55112e-17
396 2 75.9334 87.9574 -5.55112e-17
397 1 65.1954 39.7045 -5.55112e-17
398 2 165.265 111.828 -5.55112e-17
399 2 196.344 105.826 -5.55112e-17
400 2 123.128 69.3044 -5.55112e-17
401 2 83.3689 191.404 -5.55112e-17
402 1 84.5858 42.8745 -5.55112e-17
403 1 69.9694 116.648 -5.55112e-17
404 2 113.245 11.1082 -5.55112e-17
405 1 54.3042 188.142 -5.55112e-17
406 2 1.76752 97.6155 -5.55112e-17
407 1 123.456 79.2425 -5.55112e-17
408 1 130.697 29.0098 -5.55112e-17
409 2 213.734 115.739 -5.55112e-17
410 2 70.8049 158.961 -5.55112e-17
411 1 136.113 96.8555 -5.55112e-17
412 1 168.229 6.44387 -5.55112e-17
413 1 31.0348 85.6111 -5.55112e-17
414 2 193.998 202.168 -5.55112e-17
415 1 107.159 127.15 -5.55112e-17
416 1 175.907 51.6718 -5.55112e-17
417 2 107.609 129.807 -5.55112e-17
418 2 34.8072 179.068 -5.55112e-17
419 2 195.403 91.3196 -5.55112e-17
420 2 109.944 46.9958 -5.55112e-17
421 1 70.0095 31.1068 -5.55112e-17
422 1 32.2394 62.327 -5.55112e-17
423 2 116.238 125.378 -5.55112e-17
424 2 39.2634 22.8703 -5.55112e-17
425 2 117.521 151.365 -5.55112e-17
426 1 185.981 96.3465 -5.55112e-17
427 2 73.7536 58.4848 -5.55112e-17
428 1 29.2515 174.66 -5.55112e-17
429 2 131.474 149.963 -5.55112e-17
430 2 111.368 104.051 -5.55112e-17
431 1 14.141 9.5241 -5.55112e-17
432 2 174.331 3.0499 -5.55112e-17
433 1 182.096 194.206 -5.55112e-17
434 1 20.0416 201.88 -5.55112e-17
435 1 149.267 85.5801 -5.55112e-17
436 2 85.2088 198.826 -5.55112e-17
437 2 180.605 82.5787 -5.55112e-17
438 2 194.629 180.116 -5.55112e-17
439 2 91.5851 11.3548 -5.55112e-17
440 2 206.196 90.2261 -5.55112e-17
441 1 130.809 167.557 -5.55112e-17
442 1 38.4924 104.619 -5.55112e-17
443 2 79.0954 81.4861 -5.55112e-17
444 1 204.511 104.849 -5.55112e-17
445 1 169.283 135.685 -5.55112e-17
446 2 183.866 151.619 -5.55112e-17
447 2 38.8144 40.2953 -5.55112e-17
448 2 206.319 175.048 -5.55112e-17
449 1 41.8432 176.736 -5.55112e-17
450 1 10.1988 126.177 -5.55112e-17
451 1 49.9414 213.157 -5.55112e-17
452 2 208.049 60.7103 -5.55112e-17
453 1 215.929 150.287 -5.55112e-17
454 1 2.62937 68.4914 -5.55112e-17
455 2 81.6381 131.142 -5.55112e-17
456 1 84.0846 2.24087 -5.55112e-17
457 2 142.592 146.865 -5.55112e-17
458 2 153.525 134.667 -5.55112e-17
459 2 131.684 54.9099 -5.55112e-17
460 1 197.148 170.046 -5.55112e-17
461 1 111.816 128.687 -5.55112e-17
462 1 101.653 188.095 -5.55112e-17
463 2 108.773 1.09835 -5.55112e-17
464 2 17.6034 78.5999 -5.55112e-17
465 1 124.996 15.9199 -5.55112e-17
466 2 149.971 127.295 -5.55112e-17
467 2 65.6126 133.491 -5.55112e-17
468 2 124.053 125.595 -5.55112e-17
469 2 58.5612 71.8218 -5.55112e-17
470 2 208.328 154.392 -5.55112e-17
471 2 212.729 211.295 -5.55112e-17
472 2 111.783 36.0245 -5.55112e-17
473 2 198.727 214.488 -5.55112e-17
474 2 85.2244 147.061 -5.55112e-17
475 1 164.635 183.041 -5.55112e-17
476 2 176.04 35.14 -5.55112e-17
477 1 209.589 217.818 -5.55112e-17
478 1 47.8397 189.73 -5.55112e-17
479 2 2.95578 197.069 -5.55112e-17
480 1 83.8576 59.2972 -5.55112e-17
481 1 3.79172 209.914 -5.55112e-17
482 2 154.101 180.197 -5.55112e-17
483 1 134.563 209.575 -5.55112e-17
484 1 66.7689 135.88 -5.55112e-17
485 2 13.8541 173.675 -5.55112e-17
486 1 133.934 72.7267 -5.55112e-17
487 1 12.9989 201.002 -5.55112e-17
488 1 50.1161 83.239 -5.55112e-17
489 1 70.2323 108.658 -5.55112e-17
490 1 163.796 73.68 -5.55112e-17
491 1 162.201 75.6201 -5.55112e-17
492 2 209.353 15.415 -5.55112e-17
493 1 92.2368 208.631 -5.55112e-17
494 2 77.5506 64.9326 -5.55112e-17
495 1 149.718 92.387 -5.55112e-17
496 1 52.4844 123.21 -5.55112e-17
497 1 136.342 109.909 -5.55112e-17
498 2 145.778 39.3922 -5.55112e-17
499 2 175.813 120.992 -5.55112e-17
500 2 58.37 35.4668 -5.55112e-17
501 2 14.3684 139.278 -5.55112e-17
502 2 189.194 125.226 -5.55112e-17
503 2 57.7842 63.9887 -5.55112e-17
504 2 98.549 49.3114 -5.55112e-17
505 2 112.377 214.18 -5.55112e-17
506 1 207.977 5.79645 -5.55112e-17
507 2 50.1583 183.173 -5.55112e-17
508 1 140.195 59.5901 -5.55112e-17
509 1 209.133 47.2889 -5.55112e-17
510 1 195.334 103.627 -5.55112e-17
511 2 109.535 179.061 -5.55112e-17
512 1 12.2268 41.5173 -5.55112e-17
513 2 88.6637 183.433 -5.55112e-17
514 2 13.3796 91.1248 -5.55112e-17
515 1 60.9285 98.5529 -5.55112e-17
516 2 101.317 74.0118 -5.55112e-17
517 1 32.4383 146.806 -5.55112e-17
518 2 10.838 13.7424 -5.55112e-17
519 1 124.851 92.2019 -5.55112e-17
520 2 211.252 88.3832 -5.55112e-17
521 2 130.07 39.7279 -5.55112e-17
522 1 187.865 7.28757 -5.55112e-17
523 1 127.137 99.4742 -5.55112e-17
524 2 175.523 17.9865 -5.55112e-17
525 2 188.364 51.4846 -5.55112e-17
526 2 107.531 16.0841 -5.55112e-17
527 1 171.228 24.582 -5.55112e-17
528 1 213.67 202.268 -5.55112e-17
529 2 106.564 179.449 -5.55112e-17
530 2 20.7256 88.2185 -5.55112e-17
531 2 187.477 172.241 -5.55112e-17
532 1 80.7796 5.58972 -5.55112e-17
533 2 23.3816 157.376 -5.55112e-17
534 1 23.039 167.612 -5.55112e-17
535 1 170.221 207.358 -5.55112e-17
536 2 18.5087 169.413 -5.55112e-17
537 1 142.625 29.4422 -5.55112e-17
538 1 68.3115 157.755 -5.55112e-17
539 2 80.6998 163.3 -5.55112e-17
540 1 35.399 181.606 -5.55112e-17
541 1 105.153 128.719 -5.55112e-17
542 1 59.0369 126.544 -5.55112e-17
543 2 120.501 169.234 -5.55112e-17
544 1 218.731 211.887 -5.55112e-17
545 1 173.762 72.8601 -5.55112e-17
546 2 187.564 9.78386 -5.55112e-17
547 1 12.4285 75.9714 -5.55112e-17
548 1 30.1094 6.37258 -5.55112e-17
549 2 35.3116 151.924 -5.55112e-17
550 2 166.835 192.45 -5.55112e-17
551 2 38.5158 6.58778 -5.55112e-17
552 1 26.3703 54.6491 -5.55112e-17
553 2 209.268 195.539 -5.55112e-17
554 2 144.533 34.4729 -5.55112e-17
555 2 176.443 135.813 -5.55112e-17
556 1 177.752 211.946 -5.55112e-17
557 1 210.762 53.9297 -5.55112e-17
558 1 60.5173 142.554 -5.55112e-17
559 2 104.312 90.0797 -5.55112e-17
560 2 57.5442 89.3161 -5.55112e-17
561 2 111.329 181.71 -5.55112e-17
562 2 98.7297 64.8317 -5.55112e-17
563 1 73.4589 168.175 -5.55112e-17
564 2 109.071 76.402 -5.55112e-17
565 2 25.3888 60.6648 -5.55112e-17
566 2 64.2038 60.2894 -5.55112e-17
567 1 94.1623 11.3438 -5.55112e-17
568 1 22.8815 77.451 -5.55112e-17
569 2 141.916 195.068 -5.55112e-17
570 2 12.1344 21.1724 -5.55112e-17
571 2 4.57397 61.8761 -5.55112e-17
572 1 115.006 107.597 -5.55112e-17
573 2 38.1246 89.7251 -5.55112e-17
574 2 180.079 173.176 -5.55112e-17
575 1 196.634 206.605 -5.55112e-17
576 1 23.5405 74.7409 -5.55112e-17
577 1 127.219 75.0369 -5.55112e-17
578 1 183.972 110.028 -5.55112e-17
579 2 184.705 46.445 -5.55112e-17
580 1 108.785 103.772 -5.55112e-17
581 1 91.859 146.614 -5.55112e-17
582 2 125.341 101.126 -5.55112e-17
583 2 102.588 82.7918 -5.55112e-17
584 2 107.794 151.905 -5.55112e-17
585 1 178.434 101.768 -5.55112e-17
586 1 143.415 80.218 -5.55112e-17
587 1 155.564 110.699 -5.55112e-17
588 2 64.7184 108.633 -5.55112e-17
589 1 210.333 59.2936 -5.55112e-17
590 2 183.133 61.3239 -5.55112e-17
591 2 179.371 15.6705 -5.55112e-17
592 1 204.038 128.629 -5.55112e-17
593 1 126.577 90.2826 -5.55112e-17
594 1 5.20397 69.7233 -5.55112e-17
595 1 27.4991 62.5827 -5.55112e-17
596 2 107.795 70.5134 -5.55112e-17
597 2 63.9152 105.461 -5.55112e-17
598 2 135.356 87.6936 -5.55112e-17
599 2 96.9015 165.633 -5.55112e-17
600 2 49.2543 99.0022 -5.55112e-17
601 1 145.316 107.795 -5.55112e-17
602 1 173.329 52.2706 -5.55112e-17
603 2 216.762 159.399 -5.55112e-17
604 1 46.4634 180.33 -5.55112e-17
605 2 139.41 100.629 -5.55112e-17
606 2 149.804 99.1708 -5.55112e-17
607 2 47.7407 169.316 -5.55112e-17
608 2 128.565 30.8686 -5.55112e-17
609 1 78.2963 89.0786 -5.55112e-17
610 2 103.455 194.609 -5.55112e-17
611 1 1.4589 165.329 -5.55112e-17
612 1 206.907 117.391 -5.55112e-17
613 2 213.222 156.253 -5.55112e-17
614 1 202.864 30.1675 -5.55112e-17
615 1 151.509 104.505 -5.55112e-17
616 2 146.473 177.885 -5.55112e-17
617 1 169.272 1.21839 -5.55112e-17
618 1 137.292 216.291 -5.55112e-17
619 1 161.812 157.774 -5.55112e-17
620 2 42.7121 88.9945 -5.55112e-17
621 2 203.165 76.8048 -5.55112e-17
622 2 146.22 153.605 -5.55112e-17
623 2 109.117 147.638 -5.55112e-17
624 1 111.62 174.34 -5.55112e-17
625 2 208.484 79.3545 -5.55112e-17
626 1 212.065 190.405 -5.55112e-17
627 2 196.174 192.761 -5.55112e-17
628 1 116.937 156.839 -5.55112e-17
629 1 31.1277 37.2855 -5.55112e-17
630 2 132.761 214.793 -5.55112e-17
631 2 144.273 115.042 -5.55112e-17
632 2 209.332 19.9704 -5.55112e-17
633 2 60.3519 131.356 -5.55112e-17
634 2 190.122 67.4001 -5.55112e-17
635 2 80.8135 71.3643 -5.55112e-17
636 1 88.3343 131.042 -5.55112e-17
637 1 216.755 152.662 -5.55112e-17
638 1 120.768 68.4116 -5.55112e-17
639 2 199.118 63.5988 -5.55112e-17
640 2 148.78 78.7538 -5.55112e-17
641 1 200.467 96.4597 -5.55112e-17
642 2 161.647 36.0411 -5.55112e-17
643 1 165.069 58.0591 -5.55112e-17
644 2 141.841 157.503 -5.55112e-17
645 2 5.68563 74.9248 -5.55112e-17
646 1 171.344 142.637 -5.55112e-17
647 2 128.968 148.031 -5.55112e-17
648 2 191.287 211.661 -5.55112e-17
649 1 63.846 145.328 -5.55112e-17
650 1 56.4098 152.955 -5.55112e-17
651 1 112.628 130.873 -5.55112e-17
652 2 9.55954 214.04 -5.55112e-17
653 2 195.228 42.5129 -5.55112e-17
654 1 208.64 164.215 -5.55112e-17
655 1 59.5263 49.2794 -5.55112e-17
656 1 199.773 9.99308 -5.55112e-17
657 1 124.761 120.636 -5.55112e-17
658 2 165.835 108.273 -5.55112e-17
659 2 101.689 137.749 -5.55112e-17
660 1 25.7815 12.544 -5.55112e-17
661 2 16.0435 37.0977 -5.55112e-17
662 2 135.363 117.281 -5.55112e-17
663 1 163.444 114.09 -5.55112e-17
664 1 80.5572 138.51 -5.55112e-17
665 1 135.751 144.007 -5.55112e-17
666 1 203.574 182.325 -5.55112e-17
667 1 0.0906557 116.997 -5.55112e-17
668 1 134.609 156.802 -5.55112e-17
669 1 107.411 161.518 -5.55112e-17
670 2 212.225 160.793 -5.55112e-17
671 1 3.90925 16.4423 -5.55112e-17
672 1 194.478 141.316 -5.55112e-17
673 2 47.9921 84.9639 -5.55112e-17
674 2 182.934 205.617 -5.55112e-17
675 2 149.036 2.24 -5.55112e-17
676 1 181.018 158.499 -5.55112e-17
677 2 51.7346 55.1637 -5.55112e-17
678 1 86.9217 113.667 -5.55112e-17
679 1 86.5514 62.4388 -5.55112e-17
680 2 69.6421 16.2455 -5.55112e-17
681 1 5.82964 9.07501 -5.55112e-17
682 1 141.851 171.981 -5.55112e-17
683 2 96.5037 123.719 -5.55112e-17
684 1 23.4641 179.648 -5.55112e-17
685 1 83.4148 206.727 -5.55112e-17
686 1 148.764 154.263 -5.55112e-17
687 1 111.365 57.4427 -5.55112e-17
688 1 151.354 97.3981 -5.55112e-17
689 2 12.7774 141.891 -5.55112e-17
690 1 48.5262 120.668 -5.55112e-17
691 2 65.1365 115.111 -5.55112e-17
692 2 184.041 179.872 -5.55112e-17
693 1 160.931 96.4656 -5.55112e-17
694 2 141.137 151.8 -5.55112e-17
695 2 188.385 35.6279 -5.55112e-17
696 2 25.843 81.4304 -5.55112e-17
697 1 104.96 35.2311 -5.55112e-17
698 2 41.0744 19.7326 -5.55112e-17
699 1 56.5832 205.602 -5.55112e-17
700 2 17.565 125.922 -5.55112e-17
701 2 27.4452 65.2863 -5.55112e-17
702 1 161.211 10.0726 -5.55112e-17
703 1 196.926 65.1985 -5.55112e-17
704 1 157.902 125.402 -5.55112e-17
705 1 43.465 120.171 -5.55112e-17
706 1 75.3403 161.424 -5.55112e-17
707 1 180.863 66.739 -5.55112e-17
708 2 195.571 101.054 -5.55112e-17
709 1 54.3337 159.939 -5.55112e-17
710 2 92.1406 16.7803 -5.55112e-17
711 2 1.77175 141.428 -5.55112e-17
712 1 83.4311 213.87 -5.55112e-17
713 1 4.89438 152.409 -5.55112e-17
714 2 145.817 148.11 -5.55112e-17
715 2 132.527 87.2313 -5.55112e-17
716 1 88.6832 60.9847 -5.55112e-17
717 1 18.1627 61.4219 -5.55112e-17
718 2 79.008 99.2687 -5.55112e-17
719 1 68.2939 203.116 -5.55112e-17
720 2 53.3047 200.848 -5.55112e-17
721 2 42.1739 211.701 -5.55112e-17
722 2 65.2459 137.974 -5.55112e-17
723 2 15.688 165.36 -5.55112e-17
724 2 202.384 106.915 -5.55112e-17
725 2 21.4885 52.3631 -5.55112e-17
726 2 176.36 127.774 -5.55112e-17
727 2 35.6201 109.715 -5.55112e-17
728 1 175.747 77.739 -5.55112e-17
729 2 160.332 139.338 -5.55112e-17
730 2 174.938 94.8798 -5.55112e-17
731 1 11.1597 23.5293 -5.55112e-17
732 2 97.7135 89.2368 -5.55112e-17
733 2 147.44 141.184 -5.55112e-17
734 2 57.6412 191.688 -5.55112e-17
735 2 148.386 71.2983 -5.55112e-17
736 1 181.939 170.768 -5.55112e-17
737 2 45.4486 39.752 -5.55112e-17
738 2 70.9809 208.34 -5.55112e-17
739 2 186.075 129.278 -5.55112e-17
740 2 40.7048 115.426 -5.55112e-17
741 2 200.373 113.857 -5.55112e-17
742 1 71.893 98.5174 -5.55112e-17
743 2 79.3096 75.1945 -5.55112e-17
744 1 146.74 50.0058 -5.55112e-17
745 2 15.0728 76.5043 -5.55112e-17
746 1 218.518 121.375 -5.55112e-17
747 1 98.8879 163.149 -5.55112e-17
748 2 70.9114 197.719 -5.55112e-17
749 1 213.706 165.834 -5.55112e-17
750 1 139.819 147.287 -5.55112e-17
751 1 142.459 89.2136 -5.55112e-17
752 2 194.544 169.637 -5.55112e-17
753 1 37.1372 179.812 -5.55112e-17
754 2 66.4407 80.6764 -5.55112e-17
755 1 8.10385 78.9014 -5.55112e-17
756 2 179.397 56.1036 -5.55112e-17
757 1 116.812 15.0867 -5.55112e-17
758 2 96.3968 26.6737 -5.55112e-17
759 1 96.0092 133.897 -5.55112e-17
760 1 170.738 61.7697 -5.55112e-17
761 2 212.858 100.741 -5.55112e-17
762 1 174.4 108.255 -5.55112e-17
763 2 6.46105 157.168 -5.55112e-17
764 2 45.1136 189.652 -5.55112e-17
765 1 22.011 159.77 -5.55112e-17
766 2 100.311 46.991 -5.55112e-17
767 2 205.507 148.875 -5.55112e-17
768 2 72.406 61.2991 -5.55112e-17
769 2 188.538 97.9582 -5.55112e-17
770 1 134.663 18.2629 -5.55112e-17
771 1 64.8377 62.91 -5.55112e-17
772 1 131.351 2.21608 -5.55112e-17
773 2 166.885 169.832 -5.55112e-17
774 1 87.3719 85.5233 -5.55112e-17
775 1 103.424 78.1528 -5.55112e-17
776 2 192.84 102.517 -5.55112e-17
777 2 42.2295 78.8628 -5.55112e-17
778 1 82.5888 13.2253 -5.55112e-17
779 1 47.6927 62.9117 -5.55112e-17
780 2 84.2373 49.6102 -5.55112e-17
781 1 26.0698 171.144 -5.55112e-17
782 2 123.323 170.599 -5.55112e-17
783 1 75.1057 60.9752 -5.55112e-17
784 2 97.5526 114.362 -5.55112e-17
785 1 206.024 83.3094 -5.55112e-17
786 1 46.8333 3.21431 -5.55112e-17
787 2 37.3649 206.731 -5.55112e-17
788 2 164.798 179.994 -5.55112e-17
789 2 18.3425 146.946 -5.55112e-17
790 2 77.0354 8.83583 -5.55112e-17
791 2 185.342 51.5801 -5.55112e-17
792 1 212.476 132.49 -5.55112e-17
793 1 96.8086 171.297 -5.55112e-17
794 2 210.402 6.62898 -5.55112e-17
795 2 11.1965 190.568 -5.55112e-17
796 1 68.6061 215.487 -5.55112e-17
797 1 46.9661 32.424 -5.55112e-17
798 1 212.893 55.5655 -5.55112e-17
799 2 106.025 156.23 -5.55112e-17
800 1 52.8257 43.9392 -5.55112e-17
801 2 68.7469 84.606 -5.55112e-17
802 1 90.2637 217.162 -5.55112e-17
803 1 143.633 25.1812 -5.55112e-17
804 1 210.104 124.753 -5.55112e-17
805 2 182.836 114.467 -5.55112e-17
806 2 181.119 155.849 -5.55112e-17
807 2 209.03 29.2325 -5.55112e-17
808 2 76.4469 144.545 -5.55112e-17
809 1 183.789 63.8995 -5.55112e-17
810 2 24.5012 173.002 -5.55112e-17
811 2 181.356 54.0175 -5.55112e-17
812 1 122.459 185.111 -5.55112e-17
813 1 22.7531 89.9015 -5.55112e-17
814 1 3.74809 204.728 -5.55112e-17
815 1 146.26 32.2222 -5.55112e-17
816 1 206.609 50.8329 -5.55112e-17
817 2 63.4477 71.1233 -5.55112e-17
818 2 29.6626 122.6 -5.55112e-17
819 2 210.61 67.4806 -5.55112e-17
820 1 9.19437 58.5534 -5.55112e-17
821 1 64.5278 57.8638 -5.55112e-17
822 2 132.129 34.8003 -5.55112e-17
823 1 183.837 90.0499 -5.55112e-17
824 1 175.653 89.9853 -5.55112e-17
825 1 159.367 191.417 -5.55112e-17
826 2 177.884 82.1531 -5.55112e-17
827 2 102.549 27.0404 -5.55112e-17
828 1 50.6691 91.4236 -5.55112e-17
829 2 127.29 92.7636 -5.55112e-17
830 1 3.83758 156.419 -5.55112e-17
831 2 183.832 217.473 -5.55112e-17
832 2 24.2183 53.2851 -5.55112e-17
833 2 96.3886 41.1518 -5.55112e-17
834 1 71.0596 163.995 -5.55112e-17
835 1 182.247 139.868 -5.55112e-17
836 1 152.371 69.5654 -5.55112e-17
837 2 166.956 92.0618 -5.55112e-17
838 2 91.2332 26.473 -5.55112e-17
839 1 40.0895 30.8564 -5.55112e-17
840 2 13.8305 117.248 -5.55112e-17
841 2 202.387 10.2023 -5.55112e-17
842 1 173.515 161.801 -5.55112e-17
843 1 205.329 29.5755 -5.55112e-17
844 2 9.1708 25.1042 -5.55112e-17
845 1 47.0153 150.792 -5.55112e-17
846 2 127.756 211.564 -5.55112e-17
847 1 88.662 143.571 -5.55112e-17
848 2 113.778 7.70388 -5.55112e-17
849 1 25.5434 33.1895 -5.55112e-17
850 2 60.2567 67.338 -5.55112e-17
851 2 216.704 30.6519 -5.55112e-17
852 1 137.729 182.962 -5.55112e-17
853 1 185.832 104.534 -5.55112e-17
854 2 103.96 145.736 -5.55112e-17
855 2 160.773 120.311 -5.55112e-17
856 1 77.5 160.269 -5.55112e-17