ITEM: TIMESTEP
0
ITEM: NUMBER OF ATOMS
7200
ITEM: BOX BOUNDS xy xz yz pp pp pp
0.0000000000000000e+00 2.1900000000000000e+02 0.0000000000000000e+00
0.0000000000000000e+00 2.1900000000000000e+02 0.0000000000000000e+00
-3.6499999999999999e-01 3.6499999999999999e-01 0.0000000000000000e+00
ITEM: ATOMS id type x y z
1 1 65.4777 22.1104 -5.55112e-17
2 2 39.5903 126.847 -5.55112e-17
3 2 211.559 96.0583 -5.55112e-17
4 1 6.38521 93.6556 -5.55112e-17
5 1 70.0134 59.6199 -5.55112e-17
6 1 120.952 138.277 -5.55112e-17
7 2 178.834 174.401 -5.55112e-17
8 2 64.0461 98.3807 -5.55112e-17
9 1 176.009 150.234 -5.55112e-17
10 2 91.3001 211.882 -5.55112e-17
11 2 6.6264 177.798 -5.55112e-17
12 1 191.509 6.17951 -5.55112e-17
13 2 161.771 202.689 -5.55112e-17
14 1 133.075 208.487 -5.55112e-17
15 2 94.0118 14.554 -5.55112e-17
16 2 119.991 209.732 -5.55112e-17
17 1 209.819 170.032 -5.55112e-17
18 2 160.665 8.99748 -5.55112e-17
19 1 155.422 67.9347 -5.55112e-17
20 1 46.7727 93.2978 -5.55112e-17
21 1 53.2845 131.688 -5.55112e-17
22 2 93.8093 26.2624 -5.55112e-17
23 2 71.7128 195.114 -5.55112e-17
24 2 30.1246 43.5651 -5.55112e-17
25 2 43.4251 34.2698 -5.55112e-17
26 2 40.6261 4.3853 -5.55112e-17
27 1 48.8375 42.4631 -5.55112e-17
28 2 116.347 176.675 -5.55112e-17
29 2 115.517 198.619 -5.55112e-17
30 2 114.763 54.9057 -5.55112e-17
31 2 157.166 185.946 -5.55112e-17
32 1 0.280515 48.3801 -5.55112e-17
33 2 142.616 122.14 -5.55112e-17
34 2 200.061 0.111422 -5.55112e-17
35 2 32.7768 111.173 -5.55112e-17
36 1 95.1707 205.355 -5.55112e-17
37 1 34.9832 109.142 -5.55112e-17
38 2 204.858 203.356 -5.55112e-17
39 1 193.743 208.9 -5.55112e-17
40 2 212.537 49.5504 -5.55112e-17
41 1 67.0942 213.456 -5.55112e-17
42 1 103.853 213.11 -5.55112e-17
43 1 164.966 67.8168 -5.55112e-17
44 1 184.133 209.913 -5.55112e-17
45 2 73.1732 212.954 -5.55112e-17
46 1 192.835 25.885 -5.55112e-17
47 2 164.809 4.49865 -5.55112e-17
48 2 126.563 43.5114 -5.55112e-17
49 1 26.1377 75.9082 -5.55112e-17
50 2 172.579 54.1887 -5.55112e-17
51 1 61.5558 105.835 -5.55112e-17
52 1 28.5464 60.0118 -5.55112e-17
53 2 201.814 173.257 -5.55112e-17
54 1 27.8783 125.063 -5.55112e-17
55 2 151.709 10.2624 -5.55112e-17
56 1 141.935 81.2582 -5.55112e-17
57 2 138.669 133.988 -5.55112e-17
58 1 140.644 90.6663 -5.55112e-17
59 1 201.142 19.4698 -5.55112e-17
60 2 160.701 82.2597 -5.55112e-17
61 1 22.9906 54.3563 -5.55112e-17
62 1 206.214 107.164 -5.55112e-17
63 2 29.9816 200.63 -5.55112e-17
64 1 103.273 170.518 -5.55112e-17
65 2 124.564 55.3033 -5.55112e-17
66 2 62.316 65.1774 -5.55112e-17
67 2 21.6193 74.4521 -5.55112e-17
68 1 217.545 31.0914 -5.55112e-17
69 2 137.658 187.63 -5.55112e-17
70 1 7.02057 132.272 -5.55112e-17
71 1 73.9757 89.9402 -5.55112e-17
72 2 153.731 118.607 -5.55112e-17
73 2 158.55 207.038 -5.55112e-17
74 2 86.9454 182.844 -5.55112e-17
75 1 59.8815 55.2004 -5.55112e-17
76 2 92.4167 23.482 -5.55112e-17
77 2 113.422 157.062 -5.55112e-17
78 1 195.355 137.711 -5.55112e-17
79 2 77.1239 53.332 -5.55112e-17
80 1 207.891 44.4621 -5.55112e-17
81 1 164.655 115.876 -5.55112e-17
82 1 206.218 12.2238 -5.55112e-17
83 1 44.2663 107.995 -5.55112e-17
84 2 69.937 163.531 -5.55112e-17
85 2 105.066 57.1768 -5.55112e-17
86 2 125.544 67.5987 -5.55112e-17
87 2 71.993 106.967 -5.55112e-17
88 1 169.759 152.196 -5.55112e-17
89 2 123.841 88.5404 -5.55112e-17
90 2 19.2462 95.1291 -5.55112e-17
91 2 197.341 105.35 -5.55112e-17
92 1 187.401 101.963 -5.55112e-17
93 2 112.534 114.711 -5.55112e-17
94 2 35.4417 98.3972 -5.55112e-17
95 1 167.603 14.5127 -5.55112e-17
96 2 146.496 202.089 -5.55112e-17
97 2 98.739 192.63 -5.55112e-17
98 2 38.687 77.2196 -5.55112e-17
99 1 24.7637 68.1772 -5.55112e-17
100 2 3.50515 127.457 -5.55112e-17
101 1 141.676 132.773 -5.55112e-17
102 1 92.3788 162.812 -5.55112e-17
103 2 163.934 155.882 -5.55112e-17
104 2 194.911 43.539 -5.55112e-17
105 1 111.22 134.128 -5.55112e-17
106 1 115.273 13.1016 -5.55112e-17
107 1 150.286 90.3788 -5.55112e-17
108 1 180.858 218.239 -5.55112e-17
109 2 194.77 145.99 -5.55112e-17
110 2 8.55928 62.5487 -5.55112e-17
111 1 160.63 141.999 -5.55112e-17
112 2 125.306 51.0386 -5.55112e-17
113 1 39.9528 36.8203 -5.55112e-17
114 1 174.844 53.3527 -5.55112e-17
115 2 166.675 117.721 -5.55112e-17
116 2 104.643 217.687 -5.55112e-17
117 1 89.3074 177.59 -5.55112e-17
118 1 91.4266 143.785 -5.55112e-17
119 2 133.125 33.4228 -5.55112e-17
120 2 202.936 200.894 -5.55112e-17
121 1 50.3751 44.7859 -5.55112e-17
122 2 198.757 204.872 -5.55112e-17
123 2 91.9909 85.0647 -5.55112e-17
124 1 166.227 9.28128 -5.55112e-17
125 1 63.5628 198.8 -5.55112e-17
126 2 148.667 151.814 -5.55112e-17
127 2 2.62474 34.741 -5.55112e-17
128 1 10.2467 200.551 -5.55112e-17
129 1 95.7877 16.34 -5.55112e-17
130 2 12.8421 129.026 -5.55112e-17
131 1 138.496 201.872 -5.55112e-17
132 1 25.8815 2.6647 -5.55112e-17
133 1 211.07 28.4527 -5.55112e-17
134 1 50.6919 172.107 -5.55112e-17
135 2 128.196 22.6943 -5.55112e-17
136 1 11.9221 42.5258 -5.55112e-17
137 1 177.221 118.592 -5.55112e-17
138 2 36.604 114.232 -5.55112e-17
139 1 171.255 163.349 -5.55112e-17
140 1 177.072 98.8402 -5.55112e-17
141 1 73.8035 105.107 -5.55112e-17
142 1 92.1022 146.25 -5.55112e-17
143 1 91.5835 74.1606 -5.55112e-17
144 1 74.5449 51.8108 -5.55112e-17
145 2 204.256 98.772 -5.55112e-17
146 1 38.6241 59.7579 -5.55112e-17
147 2 127.966 72.1443 -5.55112e-17
148 1 204.138 60.9772 -5.55112e-17
149 1 158.008 120.927 -5.55112e-17
150 2 77.8503 129.968 -5.55112e-17
151 1 53.3229 19.1506 -5.55112e-17
152 1 75.518 147.707 -5.55112e-17
153 2 89.5927 152.651 -5.55112e-17
154 1 189.316 182.905 -5.55112e-17
155 2 19.7903 89.7188 -5.55112e-17
156 2 211.074 75.094 -5.55112e-17
157 2 87.9386 179.963 -5.55112e-17
158 2 120.384 34.7761 -5.55112e-17
159 2 128.301 76.8707 -5.55112e-17
160 2 43.2473 214.165 -5.55112e-17
161 2 42.6604 121.952 -5.55112e-17
162 1 150.958 144.538 -5.55112e-17
163 1 138.188 50.9823 -5.55112e-17
164 2 171.055 146.576 -5.55112e-17
165 1 80.525 165.759 -5.55112e-17
166 2 114.361 41.215 -5.55112e-17
167 1 84.5198 20.8257 -5.55112e-17
168 1 30.6914 85.3141 -5.55112e-17
169 2 151.084 209.681 -5.55112e-17
170 1 156.246 156.002 -5.55112e-17
171 1 164.754 178.575 -5.55112e-17
172 1 104.948 109.711 -5.55112e-17
173 1 104.388 10.5094 -5.55112e-17
174 2 217.585 55.243 -5.55112e-17
175 2 184.02 85.8629 -5.55112e-17
176 1 177.676 93.3442 -5.55112e-17
177 2 76.4492 132.868 -5.55112e-17
178 1 90.5551 107.111 -5.55112e-17
179 2 106.328 117.12 -5.55112e-17
180 1 107.105 154.257 -5.55112e-17
181 1 89.6946 137.717 -5.55112e-17
182 1 132.64 192.51 -5.55112e-17
183 1 43.9676 151.501 -5.55112e-17
184 2 58.2534 124.649 -5.55112e-17
185 2 177.847 77.6319 -5.55112e-17
186 2 96.4523 161.203 -5.55112e-17
187 2 27.534 44.5649 -5.55112e-17
188 2 86.4906 31.7554 -5.55112e-17
189 1 183.322 71.5162 -5.55112e-17
190 1 20.7978 113.441 -5.55112e-17
191 2 31.9491 114.241 -5.55112e-17
192 2 104.997 96.3828 -5.55112e-17
193 1 59.9921 66.808 -5.55112e-17
194 1 100.725 187.661 -5.55112e-17
195 2 39.7411 201.233 -5.55112e-17
196 1 143.864 131.904 -5.55112e-17
197 2 105.992 27.2449 -5.55112e-17
198 2 176.535 210.921 -5.55112e-17
199 2 178.069 188.651 -5.55112e-17
200 2 163.656 74.9501 -5.55112e-17
201 2 3.52808 88.3696 -5.55112e-17
202 1 13.4681 143.723 -5.55112e-17
203 1 68.2637 80.2293 -5.55112e-17
204 2 83.0184 15.0111 -5.55112e-17
205 2 151.239 196.873 -5.55112e-17
206 2 68.6852 136.254 -5.55112e-17
207 1 184.169 116.149 -5.55112e-17
208 2 134.617 81.4153 -5.55112e-17
209 2 172.196 27.4382 -5.55112e-17
210 1 58.7357 101.644 -5.55112e-17
211 1 218.007 85.984 -5.55112e-17
212 1 132.063 114.903 -5.55112e-17
213 1 62.1437 8.32587 -5.55112e-17
214 2 16.3071 129.345 -5.55112e-17
215 1 30.0044 67.0416 -5.55112e-17
216 1 167.994 129.83 -5.55112e-17
217 1 137.278 164.278 -5.55112e-17
218 2 109.61 141.174 -5.55112e-17
219 2 1.32562 3.49413 -5.55112e-17
220 1 183.678 50.7477 -5.55112e-17
221 2 84.5184 97.9082 -5.55112e-17
222 1 45.8512 112.881 -5.55112e-17
223 1 218.583 162.444 -5.55112e-17
224 2 85.6613 196.517 -5.55112e-17
225 2 30.6958 156.837 -5.55112e-17
226 1 165.949 52.8855 -5.55112e-17
227 2 165.692 144.125 -5.55112e-17
228 2 107.17 146.634 -5.55112e-17
229 1 74.1803 119.652 -5.55112e-17
230 1 70.7155 83.1007 -5.55112e-17
231 2 68.5593 114.539 -5.55112e-17
232 1 108.002 111.476 -5.55112e-17
233 2 106.458 136.741 -5.55112e-17
234 1 62.7243 112.26 -5.55112e-17
235 1 168.54 209.398 -5.55112e-17
236 2 174.117 163.693 -5.55112e-17
237 2 112.353 149.285 -5.55112e-17
238 2 104.853 68.7296 -5.55112e-17
239 1 208.394 193.91 -5.55112e-17
240 1 76.3677 79.5404 -5.55112e-17
241 2 63.0709 182.513 -5.55112e-17
242 1 199.533 134.319 -5.55112e-17
243 2 129.716 97.044 -5.55112e-17
244 2 180.875 61.175 -5.55112e-17
245 1 56.6305 89.6463 -5.55112e-17
246 2 200.059 137.284 -5.55112e-17
247 2 10.225 47.2717 -5.55112e-17
248 1 51.5523 175.055 -5.55112e-17
249 1 39.2297 211.572 -5.55112e-17
250 1 70.2125 43.8131 -5.55112e-17
251 2 62.7022 204.076 -5.55112e-17
252 1 210.304 127.407 -5.55112e-17
253 2 170.702 149.537 -5.55112e-17
254 2 130.03 147.571 -5.55112e-17
255 2 159.439 90.8254 -5.55112e-17
256 1 19.9985 105.833 -5.55112e-17
257 2 47.8683 31.5283 -5.55112e-17
258 1 177.221 36.9491 -5.55112e-17
259 2 183.028 180.274 -5.55112e-17
260 1 87.9785 126.693 -5.55112e-17
261 2 47.3725 191.296 -5.55112e-17
262 2 46.6148 88.0007 -5.55112e-17
263 2 187.838 159.794 -5.55112e-17
264 1 190.694 161.549 -5.55112e-17
265 1 115.981 111.969 -5.55112e-17
266 1 29.7175 207.969 -5.55112e-17
267 2 116.817 115.435 -5.55112e-17
268 1 5.45646 186.617 -5.55112e-17
269 2 74.9985 194.551 -5.55112e-17
270 2 163.722 118.576 -5.55112e-17
271 2 49.2633 82.5428 -5.55112e-17
272 1 122.27 104.329 -5.55112e-17
273 1 156.513 153.672 -5.55112e-17
274 1 197.339 151.158 -5.55112e-17
275 1 162.195 154.236 -5.55112e-17
276 1 121.075 189.168 -5.55112e-17
277 1 176.098 63.7377 -5.55112e-17
278 2 212.571 60.3209 -5.55112e-17
279 2 66.6425 217.914 -5.55112e-17
280 1 78.292 86.2141 -5.55112e-17
281 2 126.195 119.303 -5.55112e-17
282 2 32.2325 52.2928 -5.55112e-17
283 2 43.767 42.2232 -5.55112e-17
284 1 159.009 29.3908 -5.55112e-17
285 1 48.0074 137.846 -5.55112e-17
286 2 186.128 199.819 -5.55112e-17
287 2 169.433 90.1623 -5.55112e-17
288 1 2.97233 185.865 -5.55112e-17
289 2 148.828 129.73 -5.55112e-17
290 1 135.519 185.552 -5.55112e-17
291 2 35.5327 132.321 -5.55112e-17
292 1 74.7702 100.312 -5.55112e-17
293 1 149.331 156.589 -5.55112e-17
294 1 161.821 164.77 -5.55112e-17
295 2 72.5143 39.3098 -5.55112e-17
296 1 134.015 65.1702 -5.55112e-17
297 1 179.815 29.1296 -5.55112e-17
298 2 52.2793 32.8262 -5.55112e-17
299 1 97.6249 146.982 -5.55112e-17
300 2 210.664 215.713 -5.55112e-17
301 2 184.142 174.684 -5.55112e-17
302 2 138.009 37.4392 -5.55112e-17
303 1 185.623 62.2928 -5.55112e-17
304 1 95.2374 123.421 -5.55112e-17
305 1 8.62552 105.65 -5.55112e-17
306 2 140.324 27.1508 -5.55112e-17
307 2 28.358 186.577 -5.55112e-17
308 2 68.4572 64.6547 -5.55112e-17
309 1 106.353 30.0474 -5.55112e-17
310 1 107.768 181.57 -5.55112e-17
311 1 88.5519 15.4227 -5.55112e-17
312 2 100.878 25.1857 -5.55112e-17
313 2 149.323 35.231 -5.55112e-17
314 1 218.125 208.366 -5.55112e-17
315 2 201.842 99.8409 -5.55112e-17
316 1 135.455 173.921 -5.55112e-17
317 1 82.1057 52.2739 -5.55112e-17
318 1 168.064 31.1762 -5.55112e-17
319 2 6.97725 160.596 -5.55112e-17
320 1 134.938 215.098 -5.55112e-17
321 1 54.8878 59.1353 -5.55112e-17
322 1 99.6851 182.885 -5.55112e-17
323 2 152.483 171.205 -5.55112e-17
324 2 178.133 82.9644 -5.55112e-17
325 2 175.611 192.522 -5.55112e-17
326 1 194.042 211.289 -5.55112e-17
327 1 158.493 93.0285 -5.55112e-17
328 2 46.0442 96.2547 -5.55112e-17
329 2 11.9388 146.081 -5.55112e-17
330 2 55.0514 114.926 -5.55112e-17
331 2 16.8736 140.746 -5.55112e-17
332 2 218.141 69.3513 -5.55112e-17
333 2 150.889 119.372 -5.55112e-17
334 2 101.115 86.8504 -5.55112e-17
335 1 13.0209 175.901 -5.55112e-17
336 2 74.0255 203.527 -5.55112e-17
337 2 127.752 195.045 -5.55112e-17
338 1 163.555 204.146 -5.55112e-17
339 2 152.278 80.2187 -5.55112e-17
340 2 40.6618 162.319 -5.55112e-17
341 2 179.752 143.873 -5.55112e-17
342 2 140.884 30.1499 -5.55112e-17
343 2 175.553 84.6823 -5.55112e-17
344 1 185.133 24.7121 -5.55112e-17
345 2 67.0013 111.733 -5.55112e-17
346 2 160.202 185.187 -5.55112e-17
347 1 31.712 194.952 -5.55112e-17
348 1 34.332 190.075 -5.55112e-17
349 2 213.543 191.963 -5.55112e-17
350 2 136.682 183.535 -5.55112e-17
351 1 137.708 192.498 -5.55112e-17
352 1 180.779 108.573 -5.55112e-17
353 2 159.615 62.1505 -5.55112e-17
354 2 196.451 148.651 -5.55112e-17
355 1 86.0795 174.594 -5.55112e-17
356 2 42.5177 86.154 -5.55112e-17
357 1 23.7426 61.607 -5.55112e-17
358 1 210.633 30.6323 -5.55112e-17
359 1 88.1249 159.717 -5.55112e-17
360 1 132.506 197.549 -5.55112e-17
361 2 52.6548 124.262 -5.55112e-17
362 2 186.683 170.369 -5.55112e-17
363 1 65.493 147.821 -5.55112e-17
364 2 43.8883 188.044 -5.55112e-17
365 1 102.533 89.0389 -5.55112e-17
366 1 91.9118 66.2116 -5.55112e-17
367 1 181.305 170.591 -5.55112e-17
368 1 86.6299 76.8602 -5.55112e-17
369 2 142.187 216.633 -5.55112e-17
370 1 102.625 211.505 -5.55112e-17
371 2 177.234 213.801 -5.55112e-17
372 1 199.433 169.437 -5.55112e-17
373 2 78.1617 37.1605 -5.55112e-17
374 2 50.9226 214.861 -5.55112e-17
375 1 202.001 36.3088 -5.55112e-17
376 1 92.2227 82.5595 -5.55112e-17
377 2 56.234 122.224 -5.55112e-17
378 2 54.2772 188.962 -5.55112e-17
379 2 37.8041 136.326 -5.55112e-17
380 1 149.531 11.652 -5.55112e-17
381 1 55.6087 196.601 -5.55112e-17
382 1 43.1661 117.033 -5.55112e-17
383 1 29.8392 126.167 -5.55112e-17
384 2 218.184 194.365 -5.55112e-17
385 1 1.76743 113.018 -5.55112e-17
386 2 24.2251 164.529 -5.55112e-17
387 1 0.727536 33.2703 -5.55112e-17
388 1 43.9602 76.8355 -5.55112e-17
389 2 66.927 171.299 -5.55112e-17
390 1 107.394 66.8457 -5.55112e-17
391 1 184.922 212.777 -5.55112e-17
392 2 4.94721 218.816 -5.55112e-17
393 2 156.345 136.642 -5.55112e-17
394 1 101.875 147.871 -5.55112e-17
395 1 170.134 166.064 -5.55112e-17
396 2 160.754 56.106 -5.55112e-17
397 1 41.2844 42.0458 -5.55112e-17
398 2 209.505 188.48 -5.55112e-17
399 2 163.372 81.3498 -5.55112e-17
400 2 179.438 129.932 -5.55112e-17
401 2 125.561 109.106 -5.55112e-17
402 1 202.72 138.111 -5.55112e-17
403 1 27.9261 173.118 -5.55112e-17
404 2 177.98 199.273 -5.55112e-17
405 1 56.5431 151.929 -5.55112e-17
406 2 194.947 189.994 -5.55112e-17
407 1 205.912 118.894 -5.55112e-17
408 1 99.5408 208.95 -5.55112e-17
409 2 159.584 3.96361 -5.55112e-17
410 2 204.541 188.339 -5.55112e-17
411 1 126.495 53.1838 -5.55112e-17
412 1 11.9954 132.001 -5.55112e-17
413 1 95.5166 69.2654 -5.55112e-17
414 2 32.2431 164.329 -5.55112e-17
415 1 160.535 178.103 -5.55112e-17
416 1 205.011 210.729 -5.55112e-17
417 2 205.475 193.439 -5.55112e-17
418 2 131.78 157.077 -5.55112e-17
419 2 133.287 213.318 -5.55112e-17
420 2 84.4309 48.3824 -5.55112e-17
421 1 74.5358 197.063 -5.55112e-17
422 1 138.128 7.00237 -5.55112e-17
423 2 156.218 133.606 -5.55112e-17
424 2 71.6495 165.746 -5.55112e-17
425 2 198.963 75.387 -5.55112e-17
426 1 48.0848 71.1296 -5.55112e-17
427 2 86.4157 93.3178 -5.55112e-17
428 1 193.382 71.2867 -5.55112e-17
429 2 208.617 164.303 -5.55112e-17
430 2 98.8065 98.578 -5.55112e-17
431 1 163.062 25.83 -5.55112e-17
432 2 98.1108 42.6968 -5.55112e-17
433 1 98.1005 63.0317 -5.55112e-17
434 1 180.916 179.011 -5.55112e-17
435 1 218.405 66.6098 -5.55112e-17
436 2 25.8511 123.402 -5.55112e-17
437 2 22.0053 206.049 -5.55112e-17
438 2 117.822 170.425 -5.55112e-17
439 2 201.566 196.304 -5.55112e-17
440 2 17.9888 67.2542 -5.55112e-17
441 1 66.0594 199.166 -5.55112e-17
442 1 0.198072 79.445 -5.55112e-17
443 2 145.137 32.7676 -5.55112e-17
444 1 26.489 147.855 -5.55112e-17
445 1 35.7655 111.385 -5.55112e-17
446 2 95.1251 109.326 -5.55112e-17
447 2 51.4598 159.983 -5.55112e-17
448 2 30.8982 5.39899 -5.55112e-17
449 1 98.9802 15.4245 -5.55112e-17
450 1 144.311 209.969 -5.55112e-17
451 1 139.901 156.44 -5.55112e-17
452 2 61.3166 24.8619 -5.55112e-17
453 1 193.441 185.56 -5.55112e-17
454 1 8.15377 175.59 -5.55112e-17
455 2 86.9493 121.414 -5.55112e-17
456 1 191.745 32.8608 -5.55112e-17
457 2 79.2095 175.449 -5.55112e-17
458 2 65.0888 132.709 -5.55112e-17
459 2 44.0824 93.7556 -5.55112e-17
460 1 175.157 94.2545 -5.55112e-17
461 1 135.455 86.5419 -5.55112e-17
462 1 23.1902 117.029 -5.55112e-17
463 2 78.9648 60.8493 -5.55112e-17
464 2 191.575 121.709 -5.55112e-17
465 1 55.4659 22.8365 -5.55112e-17
466 2 45.3936 130.589 -5.55112e-17
467 2 132.808 87.4841 -5.55112e-17
468 2 5.16221 180.265 -5.55112e-17
469 2 127.48 92.4354 -5.55112e-17
470 2 148.101 102.55 -5.55112e-17
471 2 140.978 104.011 -5.55112e-17
472 2 202.119 159.546 -5.55112e-17
473 2 163.576 1.24256 -5.55112e-17
474 2 16.8485 97.1443 -5.55112e-17
475 1 35.3322 55.6541 -5.55112e-17
476 2 214.054 77.3617 -5.55112e-17
477 1 146.182 5.24409 -5.55112e-17
478 1 185.016 88.3243 -5.55112e-17
479 2 25.9106 60.5161 -5.55112e-17
480 1 45.1262 36.5622 -5.55112e-17
481 1 167.671 135.023 -5.55112e-17
482 2 210.753 193.333 -5.55112e-17
483 1 147.428 182.368 -5.55112e-17
484 1 124.514 103.464 -5.55112e-17
485 2 164.072 38.7229 -5.55112e-17
486 1 71.85 78.2869 -5.55112e-17
487 1 3.5094 138.318 -5.55112e-17
488 1 123.012 14.3591 -5.55112e-17
489 1 139.287 170.926 -5.55112e-17
490 1 45.6662 59.0791 -5.55112e-17
491 1 134.145 171.805 -5.55112e-17
492 2 107.911 200.412 -5.55112e-17
493 1 49.9219 33.0948 -5.55112e-17
494 2 139.249 209.537 -5.55112e-17
495 1 69.239 14.9904 -5.55112e-17
496 1 85.1699 68.7678 -5.55112e-17
497 1 95.8861 43.6662 -5.55112e-17
498 2 136.695 23.7048 -5.55112e-17
499 2 204.825 146.092 -5.55112e-17
500 2 53.441 198.57 -5.55112e-17
501 2 171.737 201.927 -5.55112e-17
502 2 127.011 162.639 -5.55112e-17
503 2 113.713 86.9301 -5.55112e-17
504 2 79.0468 50.4975 -5.55112e-17
505 2 150.363 82.418 -5.55112e-17
506 1 8.30262 190.07 -5.55112e-17
507 2 159.692 87.2008 -5.55112e-17
508 1 57.2434 156.108 -5.55112e-17
509 1 77.2236 155.501 -5.55112e-17
510 1 145.272 121.27 -5.55112e-17
511 2 49.4571 25.9335 -5.55112e-17
512 1 113.401 132.77 -5.55112e-17
513 2 13.1659 118.022 -5.55112e-17
514 2 111.295 101.441 -5.55112e-17
515 1 146.216 1.02564 -5.55112e-17
516 2 201.86 82.263 -5.55112e-17
517 1 83.5018 54.2552 -5.55112e-17
518 2 171.087 106.046 -5.55112e-17
519 1 213.849 97.7368 -5.55112e-17
520 2 151.158 54.2219 -5.55112e-17
521 2 47.7449 171.738 -5.55112e-17
522 1 152.399 49.5315 -5.55112e-17
523 1 77.4152 33.9138 -5.55112e-17
524 2 130.117 112.872 -5.55112e-17
525 2 73.8086 6.21068 -5.55112e-17
526 2 192.28 217.954 -5.55112e-17
527 1 213.423 208.521 -5.55112e-17
528 1 106.514 38.565 -5.55112e-17
529 2 8.6067 150.202 -5.55112e-17
530 2 196.785 143.603 -5.55112e-17
531 2 203.472 18.2414 -5.55112e-17
532 1 100.982 27.7409 -5.55112e-17
533 2 46.8576 169.367 -5.55112e-17
534 1 158.08 51.6741 -5.55112e-17
535 1 27.5958 30.6405 -5.55112e-17
536 2 38.1591 71.1893 -5.55112e-17
537 1 18.9903 6.82017 -5.55112e-17
538 1 5.90326 62.3986 -5.55112e-17
539 2 42.9593 156.173 -5.55112e-17
540 1 92.3353 80.156 -5.55112e-17
541 1 0.865625 43.038 -5.55112e-17
542 1 153.029 182.167 -5.55112e-17
543 2 63.6048 16.7908 -5.55112e-17
544 1 19.1889 124.935 -5.55112e-17
545 1 190.58 198.96 -5.55112e-17
546 2 92.2596 98.8368 -5.55112e-17
547 1 17.805 52.6403 -5.55112e-17
548 1 145.146 111.456 -5.55112e-17
549 2 104.793 166.157 -5.55112e-17
550 2 16.3052 206.55 -5.55112e-17
551 2 26.4168 7.74873 -5.55112e-17
552 1 10.8926 61.7009 -5.55112e-17
553 2 128.804 165.226 -5.55112e-17
554 2 6.46977 104.006 -5.55112e-17
555 2 194.059 49.9887 -5.55112e-17
556 1 188.945 169.382 -5.55112e-17
557 1 6.50158 12.2152 -5.55112e-17
558 1 82.2617 119.641 -5.55112e-17
559 2 123.148 29.457 -5.55112e-17
560 2 107.905 32.6312 -5.55112e-17
561 2 33.0882 80.1288 -5.55112e-17
562 2 198.72 177.348 -5.55112e-17
563 1 102.78 51.8025 -5.55112e-17
564 2 162.521 179.78 -5.55112e-17
565 2 163.633 163.411 -5.55112e-17
566 2 213.068 105.52 -5.55112e-17
567 1 114.666 150.794 -5.55112e-17
568 1 164.813 86.6881 -5.55112e-17
569 2 201.497 11.3922 -5.55112e-17
570 2 75.9373 87.8737 -5.55112e-17
571 2 32.1349 87.7903 -5.55112e-17
572 1 118.793 135.983 -5.55112e-17
573 2 189.376 30.4078 -5.55112e-17
574 2 168.043 102.049 -5.55112e-17
575 1 165.572 124.197 -5.55112e-17
576 1 195.226 95.2516 -5.55112e-17
577 1 157.96 81.5543 -5.55112e-17
578 1 80.837 5.98483 -5.55112e-17
579 2 99.3328 197.318 -5.55112e-17
580 1 213.629 84.4123 -5.55112e-17
581 1 130.08 196.432 -5.55112e-17
582 2 36.073 78.9449 -5.55112e-17
583 2 126.749 81.6309 -5.55112e-17
584 2 198.64 155.529 -5.55112e-17
585 1 50.7568 105.695 -5.55112e-17
586 1 186.339 66.7083 -5.55112e-17
587 1 6.06652 170.743 -5.55112e-17
588 2 51.7611 55.0598 -5.55112e-17
589 1 147.388 20.7841 -5.55112e-17
590 2 69.1165 75.7349 -5.55112e-17
591 2 117.705 195.796 -5.55112e-17
592 1 111.75 137.152 -5.55112e-17
593 1 181.891 11.0392 -5.55112e-17
594 1 155.96 161.595 -5.55112e-17
595 1 136.528 202.816 -5.55112e-17
596 2 148.581 9.28223 -5.55112e-17
597 2 109.175 190.804 -5.55112e-17
598 2 88.1082 169.474 -5.55112e-17
599 2 44.8565 183.635 -5.55112e-17
600 2 97.533 210.639 -5.55112e-17
601 1 176.741 170.465 -5.55112e-17
602 1 119.167 168.277 -5.55112e-17
603 2 17.0544 137.659 -5.55112e-17
604 1 64.5591 48.1863 -5.55112e-17
605 2 2.64548 99.9375 -5.55112e-17
606 2 159.133 115.534 -5.55112e-17
607 2 125.46 165.06 -5.55112e-17
608 2 99.0905 148.869 -5.55112e-17
609 1 56.936 161.594 -5.55112e-17
610 2 18.4056 114.347 -5.55112e-17
611 1 74.9527 208.305 -5.55112e-17
612 1 129.017 129.171 -5.55112e-17
613 2 181.835 154.468 -5.55112e-17
614 1 126.582 170.424 -5.55112e-17
615 1 136.819 148.159 -5.55112e-17
616 2 200.238 92.1829 -5.55112e-17
617 1 67.6392 177.696 -5.55112e-17
618 1 206.6 84.2523 -5.55112e-17
619 1 156.218 178.253 -5.55112e-17
620 2 9.48881 132.637 -5.55112e-17
621 2 132.16 41.5881 -5.55112e-17
622 2 79.9098 203.23 -5.55112e-17
623 2 50.682 38.2131 -5.55112e-17
624 1 107.187 134.242 -5.55112e-17
625 2 78.9137 158.803 -5.55112e-17
626 1 64.6996 208.829 -5.55112e-17
627 2 11.9441 7.82118 -5.55112e-17
628 1 97.8796 69.1386 -5.55112e-17
629 1 127.224 69.5983 -5.55112e-17
630 2 41.999 146.997 -5.55112e-17
631 2 122.625 160.538 -5.55112e-17
632 2 133.753 23.0211 -5.55112e-17
633 2 158.153 183.087 -5.55112e-17
634 2 2.67283 15.5135 -5.55112e-17
635 2 25.0255 70.9332 -5.55112e-17
636 1 10.0133 91.5294 -5.55112e-17
637 1 199.105 52.7822 -5.55112e-17
638 1 43.5825 101.014 -5.55112e-17
639 2 164.654 109.936 -5.55112e-17
640 2 167.1 114.763 -5.55112e-17
641 1 156.172 17.2522 -5.55112e-17
642 2 203.091 44.5299 -5.55112e-17
643 1 32.1537 141.834 -5.55112e-17
644 2 20.7004 31.5358 -5.55112e-17
645 2 109.169 26.5133 -5.55112e-17
646 1 36.751 149.283 -5.55112e-17
647 2 183.818 171.264 -5.55112e-17
648 2 216.248 141.584 -5.55112e-17
649 1 160.457 96.4563 -5.55112e-17
650 1 99.0074 50.2257 -5.55112e-17
651 1 132.34 200.139 -5.55112e-17
652 2 57.6751 164.117 -5.55112e-17
653 2 109.355 183.566 -5.55112e-17
654 1 68.488 96.5205 -5.55112e-17
655 1 6.17739 127.971 -5.55112e-17
656 1 113.314 96.7186 -5.55112e-17
657 1 26.4858 184.465 -5.55112e-17
658 2 81.734 91.6464 -5.55112e-17
659 2 179.108 38.9099 -5.55112e-17
660 1 58.9295 169.707 -5.55112e-17
661 2 214.14 24.9505 -5.55112e-17
662 2 177.836 48.7122 -5.55112e-17
663 1 113.026 45.9349 -5.55112e-17
664 1 184.101 3.40869 -5.55112e-17
665 1 144.725 175.237 -5.55112e-17
666 1 124.473 117.331 -5.55112e-17
667 1 149.327 191.702 -5.55112e-17
668 1 139.233 196.722 -5.55112e-17
669 1 202.321 24.2803 -5.55112e-17
670 2 214.143 37.4884 -5.55112e-17
671 1 24.0455 170.054 -5.55112e-17
672 1 183.819 66.8551 -5.55112e-17
673 2 128.95 61.1462 -5.55112e-17
674 2 173.308 82.0616 -5.55112e-17
675 2 183.413 79.2174 -5.55112e-17
676 1 4.02953 60.9534 -5.55112e-17
677 2 104.321 74.4054 -5.55112e-17
678 1 150.281 199.465 -5.55112e-17
679 1 170.816 175.989 -5.55112e-17
680 2 93.6387 59.5545 -5.55112e-17
681 1 34.0217 129.798 -5.55112e-17
682 1 120.221 200.238 -5.55112e-17
683 2 44.8431 159.075 -5.55112e-17
684 1 100.831 42.1805 -5.55112e-17
685 1 150.821 207.226 -5.55112e-17
686 1 174.674 123.67 -5.55112e-17
687 1 109.494 80.6306 -5.55112e-17
688 1 13.8279 215.728 -5.55112e-17
689 2 112.572 183.249 -5.55112e-17
690 1 153.566 87.3253 -5.55112e-17
691 2 68.1668 40.1362 -5.55112e-17
692 2 33.1366 7.3152 -5.55112e-17
693 1 110.777 129.183 -5.55112e-17
694 2 23.3023 90.3089 -5.55112e-17
695 2 207.277 169.341 -5.55112e-17
696 2 0.617932 216.091 -5.55112e-17
697 1 145.114 155.574 -5.55112e-17
698 2 78.4518 178.001 -5.55112e-17
699 1 133.363 166.857 -5.55112e-17
700 2 152.305 84.9312 -5.55112e-17
701 2 204.023 26.2687 -5.55112e-17
702 1 95.5276 91.8167 -5.55112e-17
703 1 45.6388 156.527 -5.55112e-17
704 1 134.616 31.0467 -5.55112e-17
705 1 72.2744 28.172 -5.55112e-17
706 1 150.165 154.355 -5.55112e-17
707 1 64.02 137.796 -5.55112e-17
708 2 198.207 64.5518 -5.55112e-17
709 1 113.928 9.20217 -5.55112e-17
710 2 199.113 78.2949 -5.55112e-17
711 2 44.6794 146.093 -5.55112e-17
712 1 197.597 185.229 -5.55112e-17
713 1 141.518 100.903 -5.55112e-17
714 2 180.036 36.2942 -5.55112e-17
715 2 135.758 35.6325 -5.55112e-17
716 1 192.626 119.141 -5.55112e-17
717 1 118.668 207.548 -5.55112e-17
718 2 107.511 158.778 -5.55112e-17
719 1 28.4208 91.7586 -5.55112e-17
720 2 215.045 183.505 -5.55112e-17
721 2 101.486 39.8692 -5.55112e-17
722 2 52.3872 43.331 -5.55112e-17
723 2 58.3514 24.0674 -5.55112e-17
724 2 168.089 158.827 -5.55112e-17
725 2 1.68315 64.6852 -5.55112e-17
726 2 30.1933 120.096 -5.55112e-17
727 2 211.078 15.7798 -5.55112e-17
728 1 55.5387 111.867 -5.55112e-17
729 2 6.88568 155.719 -5.55112e-17
730 2 66.0046 187.598 -5.55112e-17
731 1 67.0536 201.581 -5.55112e-17
732 2 22.2151 202.855 -5.55112e-17
733 2 148.847 179.523 -5.55112e-17
734 2 99.4895 7.66031 -5.55112e-17
735 2 142.005 211.737 -5.55112e-17
736 1 190.406 159.081 -5.55112e-17
737 2 8.23394 79.553 -5.55112e-17
738 2 179.28 14.572 -5.55112e-17
739 2 208.264 6.8844 -5.55112e-17
740 2 156.863 110.719 -5.55112e-17
741 2 67.9373 124.593 -5.55112e-17
742 1 11.9439 102.803 -5.55112e-17
743 2 117.891 143.777 -5.55112e-17
744 1 108.94 169.365 -5.55112e-17
745 2 9.77285 30.0743 -5.55112e-17
746 1 131.483 53.3354 -5.55112e-17
747 1 70.503 125.309 -5.55112e-17
748 2 218.417 104.202 -5.55112e-17
749 1 81.3483 190.408 -5.55112e-17
750 1 67.7367 121.933 -5.55112e-17
751 1 201.104 76.9323 -5.55112e-17
752 2 20.6973 68.5103 -5.55112e-17
753 1 80.0208 123.321 -5.55112e-17
754 2 140.626 125.073 -5.55112e-17
755 1 122.745 113.324 -5.55112e-17
756 2 139.122 199.172 -5.55112e-17
757 1 120.807 120.521 -5.55112e-17
758 2 11.4728 194.863 -5.55112e-17
759 1 28.641 151.999 -5.55112e-17
760 1 142.358 182.969 -5.55112e-17
761 2 63.9492 37.0981 -5.55112e-17
762 1 204.748 181.311 -5.55112e-17
763 2 11.5967 110.218 -5.55112e-17
764 2 96.7398 121.164 -5.55112e-17
765 1 186.978 56.974 -5.55112e-17
766 2 17.9102 14.6073 -5.55112e-17
767 2 40.8654 75.6731 -5.55112e-17
768 2 25.2363 213.269 -5.55112e-17
769 2 113.262 83.8651 -5.55112e-17
770 1 216.434 180.935 -5.55112e-17
771 1 90.8381 60.392 -5.55112e-17
772 1 118.238 110.615 -5.55112e-17
773 2 88.1599 212.107 -5.55112e-17
774 1 48.9524 68.6557 -5.55112e-17
775 1 52.1255 100.264 -5.55112e-17
776 2 59.6152 75.3283 -5.55112e-17
777 2 191.276 170.618 -5.55112e-17
778 1 103.542 137.048 -5.55112e-17
779 1 20.1288 65.8571 -5.55112e-17
780 2 29.6336 130.534 -5.55112e-17
781 1 21.119 2.77089 -5.55112e-17
782 2 36.9322 129.09 -5.55112e-17
783 1 77.0394 189.245 -5.55112e-17
784 2 49.5022 2.8972 -5.55112e-17
785 1 167.017 29.2354 -5.55112e-17
786 1 122.905 61.8256 -5.55112e-17
787 2 88.482 3.52417 -5.55112e-17
788 2 61.5472 196.933 -5.55112e-17
789 2 207.088 152.547 -5.55112e-17
790 2 114.68 119.175 -5.55112e-17
791 2 1.54336 161.205 -5.55112e-17
792 1 144.914 20.2346 -5.55112e-17
793 1 133.338 12.3365 -5.55112e-17
794 2 85.0491 102.7 -5.55112e-17
795 2 168.284 107.09 -5.55112e-17
796 1 181.795 165.003 -5.55112e-17
797 1 103.188 26.4262 -5.55112e-17
798 1 41.4962 168.832 -5.55112e-17
799 2 16.927 1.1172 -5.55112e-17
800 1 173.637 32.4365 -5.55112e-17
801 2 162.354 71.5232 -5.55112e-17
802 1 11.4062 10.6308 -5.55112e-17
803 1 50.0149 119.279 -5.55112e-17
804 1 159.904 204.643 -5.55112e-17
805 2 165.713 55.5887 -5.55112e-17
806 2 2.1659 10.5452 -5.55112e-17
807 2 180.505 105.98 -5.55112e-17
808 2 127.818 110.948 -5.55112e-17
809 1 191.903 82.3118 -5.55112e-17
810 2 37.9483 16.2746 -5.55112e-17
811 2 114.559 44.0052 -5.55112e-17
812 1 54.9745 50.82 -5.55112e-17
813 1 109.429 202.658 -5.55112e-17
814 1 191.638 207.584 -5.55112e-17
815 1 35.4149 160.51 -5.55112e-17
816 1 10.5777 175.922 -5.55112e-17
817 2 135.654 137.637 -5.55112e-17
818 2 31.3427 10.2429 -5.55112e-17
819 2 1.29226 177.665 -5.55112e-17
820 1 161.65 89.3565 -5.55112e-17
821 1 41.2931 187.24 -5.55112e-17
822 2 104.809 139.483 -5.55112e-17
823 1 178.178 7.00706 -5.55112e-17
824 1 123.024 45.8259 -5.55112e-17
825 1 42.3463 175.925 -5.55112e-17
826 2 195.023 216.49 -5.55112e-17
827 2 20.962 170.417 -5.55112e-17
828 1 67.0571 59.7837 -5.55112e-17
829 2 92.2965 47.4379 -5.55112e-17
830 1 154.382 111.687 -5.55112e-17
831 2 189.834 144.496 -5.55112e-17
832 2 183.26 92.1336 -5.55112e-17
833 2 162.357 158.529 -5.55112e-17
834 1 85.7429 159.764 -5.55112e-17
835 1 152.695 203.149 -5.55112e-17
836 1 148.426 187.235 -5.55112e-17
837 2 64.1616 91.0573 -5.55112e-17
838 2 212.055 108.657 -5.55112e-17
839 1 43.5357 54.1384 -5.55112e-17
840 2 157.052 2.47621 -5.55112e-17
841 2 181.456 73.699 -5.55112e-17
842 1 9.90367 44.6353 -5.55112e-17
843 1 69.2287 78.2718 -5.55112e-17
844 2 50.1332 208.861 -5.55112e-17
845 1 25.4441 53.7494 -5.55112e-17
846 2 102.111 102.255 -5.55112e-17
847 1 88.9725 143.087 -5.55112e-17
848 2 170.496 50.0206 -5.55112e-17
849 1 2.96421 145.112 -5.55112e-17
850 2 190.563 139.494 -5.55112e-17
851 2 121.843 167.885 -5.55112e-17
852 1 23.4957 32.053 -5.55112e-17
853 1 15.5839 68.5746 -5.55112e-17
854 2 135.439 75.3795 -5.55112e-17
855 2 23.4902 200.302 -5.55112e-17
856 1 200.438 8.80751 -5.55112e-17