ITEM: TIMESTEP
0
ITEM: NUMBER OF ATOMS
7200
ITEM: BOX BOUNDS xy xz yz pp pp pp
0.0000000000000000e+00 2.1900000000000000e+02 0.0000000000000000e+00
0.0000000000000000e+00 2.1900000000000000e+02 0.0000000000000000e+00
-3.6499999999999999e-01 3.6499999999999999e-01 0.0000000000000000e+00
ITEM: ATOMS id type x y z
1 1 133.579 211.108 -5.55112e-17
2 2 58.5946 97.1974 -5.55112e-17
3 2 182.608 48.8504 -5.55112e-17
4 1 115.581 216.593 -5.55112e-17
5 1 120.901 49.3871 -5.55112e-17
6 1 1.83427 97.4558 -5.55112e-17
7 2 19.9027 13.9671 -5.55112e-17
8 2 71.6708 62.1563 -5.55112e-17
9 1 22.9751 79.7509 -5.55112e-17
10 2 12.8011 16.4426 -5.55112e-17
11 2 55.7317 179.04 -5.55112e-17
12 1 189.197 17.0803 -5.55112e-17
13 2 65.3455 208.706 -5.55112e-17
14 1 136.12 211.905 -5.55112e-17
15 2 71.1077 2.15305 -5.55112e-17
16 2 65.5887 41.7219 -5.55112e-17
17 1 208.353 150.476 -5.55112e-17
18 2 77.8808 100.505 -5.55112e-17
19 1 23.3633 40.1756 -5.55112e-17
20 1 177.753 42.58 -5.55112e-17
21 1 183.921 115.944 -5.55112e-17
22 2 9.17832 128.134 -5.55112e-17
23 2 140.433 209.247 -5.55112e-17
24 2 161.996 65.7653 -5.55112e-17
25 2 15.8968 2.80796 -5.55112e-17
26 2 195.723 162.963 -5.55112e-17
27 1 170.125 121.963 -5.55112e-17
28 2 182.639 194.989 -5.55112e-17
29 2 100.776 64.8671 -5.55112e-17
30 2 71.6093 144.25 -5.55112e-17
31 2 119.892 63.9907 -5.55112e-17
32 1 2.49535 207.671 -5.55112e-17
33 2 0.750092 20.7727 -5.55112e-17
34 2 15.1914 94.2953 -5.55112e-17
35 2 206.21 195.604 -5.55112e-17
36 1 121.583 74.4011 -5.55112e-17
37 1 60.6071 131.606 -5.55112e-17
38 2 86.9167 211.08 -5.55112e-17
39 1 44.1948 75.7026 -5.55112e-17
40 2 28.2559 34.7103 -5.55112e-17
41 1 108.591 42.1261 -5.55112e-17
42 1 44.7238 191.066 -5.55112e-17
43 1 4.30413 67.757 -5.55112e-17
44 1 13.3282 139.832 -5.55112e-17
45 2 199.882 0.133148 -5.55112e-17
46 1 4.60635 19.6861 -5.55112e-17
47 2 206.325 20.6383 -5.55112e-17
48 2 29.3485 142.687 -5.55112e-17
49 1 178.117 208.276 -5.55112e-17
50 2 33.2212 77.4419 -5.55112e-17
51 1 21.6815 141.032 -5.55112e-17
52 1 0.60285 216.043 -5.55112e-17
53 2 112.612 36.6618 -5.55112e-17
54 1 167.528 14.9014 -5.55112e-17
55 2 122.934 171.24 -5.55112e-17
56 1 43.9227 196.613 -5.55112e-17
57 2 103.749 146.174 -5.55112e-17
58 1 7.39287 46.5562 -5.55112e-17
59 1 137.779 134.655 -5.55112e-17
60 2 16.1166 82.371 -5.55112e-17
61 1 68.5211 148.123 -5.55112e-17
62 1 67.9281 199.173 -5.55112e-17
63 2 37.8915 32.8284 -5.55112e-17
64 1 65.7676 34.7595 -5.55112e-17
65 2 94.0409 136.394 -5.55112e-17
66 2 148.583 166.63 -5.55112e-17
67 2 144.581 161.02 -5.55112e-17
68 1 144.531 42.9138 -5.55112e-17
69 2 40.1146 161.25 -5.55112e-17
70 1 14.3698 55.625 -5.55112e-17
71 1 17.9734 160.677 -5.55112e-17
72 2 23.411 216.223 -5.55112e-17
73 2 86.9761 145.131 -5.55112e-17
74 2 183.702 181.957 -5.55112e-17
75 1 167.515 110.641 -5.55112e-17
76 2 14.6343 211.803 -5.55112e-17
77 2 99.6487 177.64 -5.55112e-17
78 1 94.4684 112.016 -5.55112e-17
79 2 51.2916 189.514 -5.55112e-17
80 1 194.19 192.885 -5.55112e-17
81 1 167.827 105.722 -5.55112e-17
82 1 60.8173 129.67 -5.55112e-17
83 1 48.246 76.298 -5.55112e-17
84 2 50.9822 186.358 -5.55112e-17
85 2 35.8646 170.458 -5.55112e-17
86 2 91.3628 141.613 -5.55112e-17
87 2 101.375 23.5222 -5.55112e-17
88 1 148.597 153.267 -5.55112e-17
89 2 144.527 5.98832 -5.55112e-17
90 2 169.836 82.8498 -5.55112e-17
91 2 24.5233 103.307 -5.55112e-17
92 1 193.225 167.454 -5.55112e-17
93 2 93.2571 175.185 -5.55112e-17
94 2 107.886 72.7648 -5.55112e-17
95 1 113.033 44.541 -5.55112e-17
96 2 100.639 199.861 -5.55112e-17
97 2 39.8165 29.029 -5.55112e-17
98 2 151.838 157.956 -5.55112e-17
99 1 39.927 7.34698 -5.55112e-17
100 2 17.6884 51.8466 -5.55112e-17
101 1 65.552 93.535 -5.55112e-17
102 1 30.513 48.9853 -5.55112e-17
103 2 23.6151 58.1681 -5.55112e-17
104 2 156.773 86.4426 -5.55112e-17
105 1 55.1331 110.661 -5.55112e-17
106 1 140.1 171.215 -5.55112e-17
107 1 158.265 84.3275 -5.55112e-17
108 1 82.3638 94.3656 -5.55112e-17
109 2 104.644 184.965 -5.55112e-17
110 2 104.039 58.1059 -5.55112e-17
111 1 76.2003 138.159 -5.55112e-17
112 2 3.75342 36.7167 -5.55112e-17
113 1 209.072 60.3457 -5.55112e-17
114 1 42.3874 54.8103 -5.55112e-17
115 2 195.564 112.302 -5.55112e-17
116 2 102.448 78.8352 -5.55112e-17
117 1 160.188 25.6306 -5.55112e-17
118 1 181.477 72.7134 -5.55112e-17
119 2 80.4823 5.8728 -5.55112e-17
120 2 186.54 26.4907 -5.55112e-17
121 1 32.7862 155.131 -5.55112e-17
122 2 194.737 44.0311 -5.55112e-17
123 2 165.743 73.7027 -5.55112e-17
124 1 203.11 152.416 -5.55112e-17
125 1 202.483 113.177 -5.55112e-17
126 2 65.9583 156.185 -5.55112e-17
127 2 126.469 181.64 -5.55112e-17
128 1 158.135 28.1917 -5.55112e-17
129 1 56.6105 113.222 -5.55112e-17
130 2 198.146 88.3336 -5.55112e-17
131 1 45.9956 153.846 -5.55112e-17
132 1 188.282 33.0227 -5.55112e-17
133 1 176.093 119.086 -5.55112e-17
134 1 56.5017 87.0458 -5.55112e-17
135 2 100.91 141.04 -5.55112e-17
136 1 38.7575 143.538 -5.55112e-17
137 1 2.85117 101.539 -5.55112e-17
138 2 168.928 197.836 -5.55112e-17
139 1 157.277 182.698 -5.55112e-17
140 1 171.295 90.9202 -5.55112e-17
141 1 37.191 7.00799 -5.55112e-17
142 1 13.543 149.941 -5.55112e-17
143 1 110.582 34.6959 -5.55112e-17
144 1 168.519 45.9996 -5.55112e-17
145 2 40.4633 94.8411 -5.55112e-17
146 1 190.08 148.974 -5.55112e-17
147 2 125.99 95.5837 -5.55112e-17
148 1 121.154 83.2377 -5.55112e-17
149 1 87.7736 6.04028 -5.55112e-17
150 2 70.9147 127.895 -5.55112e-17
151 1 26.3302 58.8996 -5.55112e-17
152 1 67.3351 172.006 -5.55112e-17
153 2 161.536 210.359 -5.55112e-17
154 1 96.0656 66.9551 -5.55112e-17
155 2 177.494 100.977 -5.55112e-17
156 2 76.5769 210.515 -5.55112e-17
157 2 70.7712 17.3964 -5.55112e-17
158 2 113.466 122.373 -5.55112e-17
159 2 87.2697 154.089 -5.55112e-17
160 2 127.886 137.65 -5.55112e-17
161 2 110.387 71.5361 -5.55112e-17
162 1 151.215 119.679 -5.55112e-17
163 1 35.8782 22.3377 -5.55112e-17
164 2 157.141 138.038 -5.55112e-17
165 1 110.6 57.5656 -5.55112e-17
166 2 136.34 59.6464 -5.55112e-17
167 1 207.662 10.7478 -5.55112e-17
168 1 104.098 193.639 -5.55112e-17
169 2 129.708 114.453 -5.55112e-17
170 1 36.2374 11.192 -5.55112e-17
171 1 189.492 122.87 -5.55112e-17
172 1 167.687 165.208 -5.55112e-17
173 1 132.331 154.895 -5.55112e-17
174 2 17.5104 90.0189 -5.55112e-17
175 2 89.0464 206.341 -5.55112e-17
176 1 1.44698 157.372 -5.55112e-17
177 2 6.91446 104.435 -5.55112e-17
178 1 160.108 201.754 -5.55112e-17
179 2 32.7212 159.707 -5.55112e-17
180 1 0.330343 208.139 -5.55112e-17
181 1 158.097 12.0066 -5.55112e-17
182 1 63.7814 149.763 -5.55112e-17
183 1 81.2695 20.7357 -5.55112e-17
184 2 91.6101 73.9103 -5.55112e-17
185 2 188.531 52.6595 -5.55112e-17
186 2 54.8842 171.55 -5.55112e-17
187 2 60.0824 35.5763 -5.55112e-17
188 2 64.3485 141.158 -5.55112e-17
189 1 3.32511 53.6644 -5.55112e-17
190 1 5.27389 180.498 -5.55112e-17
191 2 75.1978 135.732 -5.55112e-17
192 2 163.581 179.671 -5.55112e-17
193 1 164.066 148.389 -5.55112e-17
194 1 92.6034 154.904 -5.55112e-17
195 2 105.209 83.1149 -5.55112e-17
196 1 45.4203 89.6027 -5.55112e-17
197 2 127.799 6.12654 -5.55112e-17
198 2 33.4772 82.0477 -5.55112e-17
199 2 117.824 3.30969 -5.55112e-17
200 2 61.8652 177.232 -5.55112e-17
201 2 63.391 204.644 -5.55112e-17
202 1 108.507 166.166 -5.55112e-17
203 1 150.206 148.071 -5.55112e-17
204 2 98.06 201.189 -5.55112e-17
205 2 185.434 86.9838 -5.55112e-17
206 2 149.16 158.643 -5.55112e-17
207 1 109.693 82.048 -5.55112e-17
208 2 210.397 171.929 -5.55112e-17
209 2 7.82892 27.7704 -5.55112e-17
210 1 98.8795 111.821 -5.55112e-17
211 1 121.396 129.193 -5.55112e-17
212 1 19.8533 146.234 -5.55112e-17
213 1 194.178 150.702 -5.55112e-17
214 2 142.837 195.441 -5.55112e-17
215 1 202.414 45.8481 -5.55112e-17
216 1 211.738 121.089 -5.55112e-17
217 1 217.805 188.418 -5.55112e-17
218 2 9.92221 178.361 -5.55112e-17
219 2 148.699 119.377 -5.55112e-17
220 1 136.943 21.8836 -5.55112e-17
221 2 60.096 144.863 -5.55112e-17
222 1 28.177 118.581 -5.55112e-17
223 1 185.283 48.5314 -5.55112e-17
224 2 178.147 7.46446 -5.55112e-17
225 2 177.403 151.471 -5.55112e-17
226 1 159.972 173.1 -5.55112e-17
227 2 212.701 118.981 -5.55112e-17
228 2 33.6574 145.091 -5.55112e-17
229 1 107.554 2.50881 -5.55112e-17
230 1 169.565 205.23 -5.55112e-17
231 2 6.03274 101.424 -5.55112e-17
232 1 147.585 200.148 -5.55112e-17
233 2 171.985 64.9041 -5.55112e-17
234 1 130.169 84.4572 -5.55112e-17
235 1 1.48564 23.4881 -5.55112e-17
236 2 157.302 46.3354 -5.55112e-17
237 2 152.033 197.654 -5.55112e-17
238 2 58.3202 202.542 -5.55112e-17
239 1 114.228 124.903 -5.55112e-17
240 1 163.276 113.472 -5.55112e-17
241 2 61.2148 12.2985 -5.55112e-17
242 1 176.664 140.747 -5.55112e-17
243 2 57.7759 44.2383 -5.55112e-17
244 2 204.124 71.9038 -5.55112e-17
245 1 7.52716 169.949 -5.55112e-17
246 2 120.447 207.722 -5.55112e-17
247 2 190.359 163.043 -5.55112e-17
248 1 182.965 4.33339 -5.55112e-17
249 1 3.76073 166.592 -5.55112e-17
250 1 36.2115 184.278 -5.55112e-17
251 2 3.74002 99.0882 -5.55112e-17
252 1 87.1059 189.508 -5.55112e-17
253 2 181.923 139.543 -5.55112e-17
254 2 35.0359 122.52 -5.55112e-17
255 2 205.723 107.75 -5.55112e-17
256 1 188.998 191.022 -5.55112e-17
257 2 148.66 8.4306 -5.55112e-17
258 1 214.865 39.5456 -5.55112e-17
259 2 195.657 147.926 -5.55112e-17
260 1 104.45 51.8523 -5.55112e-17
261 2 92.6903 178.17 -5.55112e-17
262 2 1.1608 152.065 -5.55112e-17
263 2 94.6054 69.4349 -5.55112e-17
264 1 33.863 157.304 -5.55112e-17
265 1 11.235 114.009 -5.55112e-17
266 1 19.5244 171.406 -5.55112e-17
267 2 83.9739 76.543 -5.55112e-17
268 1 169.787 104.072 -5.55112e-17
269 2 178.247 19.4883 -5.55112e-17
270 2 97.4748 87.4963 -5.55112e-17
271 2 88.9743 194.82 -5.55112e-17
272 1 161.06 96.8243 -5.55112e-17
273 1 166.279 45.1484 -5.55112e-17
274 1 107.83 63.9953 -5.55112e-17
275 1 118.634 133.025 -5.55112e-17
276 1 124.728 71.6171 -5.55112e-17
277 1 41.9329 63.0467 -5.55112e-17
278 2 104.437 150.585 -5.55112e-17
279 2 206.733 73.7882 -5.55112e-17
280 1 141.96 160.125 -5.55112e-17
281 2 185.102 95.4931 -5.55112e-17
282 2 176.112 71.8779 -5.55112e-17
283 2 89.5466 100.991 -5.55112e-17
284 1 169.524 31.5175 -5.55112e-17
285 1 73.4886 205.98 -5.55112e-17
286 2 106.661 7.08751 -5.55112e-17
287 2 54.182 66.2531 -5.55112e-17
288 1 56.0208 132.433 -5.55112e-17
289 2 76.0354 171.839 -5.55112e-17
290 1 43.9349 36.5332 -5.55112e-17
291 2 129.18 134.403 -5.55112e-17
292 1 24.5236 28.2732 -5.55112e-17
293 1 112.028 100.377 -5.55112e-17
294 1 29.0303 26.87 -5.55112e-17
295 2 144.179 14.9007 -5.55112e-17
296 1 106.094 59.6802 -5.55112e-17
297 1 147.703 197.1 -5.55112e-17
298 2 57.3949 198.072 -5.55112e-17
299 1 130.583 42.5169 -5.55112e-17
300 2 68.0939 18.9438 -5.55112e-17
301 2 47.1869 136.625 -5.55112e-17
302 2 35.0222 79.9117 -5.55112e-17
303 1 139.717 202.112 -5.55112e-17
304 1 50.1658 209.692 -5.55112e-17
305 1 161.68 181.631 -5.55112e-17
306 2 188.829 68.5325 -5.55112e-17
307 2 189.06 21.859 -5.55112e-17
308 2 155.829 204.835 -5.55112e-17
309 1 141.543 193.039 -5.55112e-17
310 1 135.399 125.443 -5.55112e-17
311 1 91.7598 207.132 -5.55112e-17
312 2 5.78162 33.8574 -5.55112e-17
313 2 142.311 17.5713 -5.55112e-17
314 1 120.285 95.0571 -5.55112e-17
315 2 113.122 10.5227 -5.55112e-17
316 1 75.6905 174.358 -5.55112e-17
317 1 28.0857 9.75026 -5.55112e-17
318 1 138.354 175.038 -5.55112e-17
319 2 164.886 128.315 -5.55112e-17
320 1 67.9322 134.463 -5.55112e-17
321 1 8.83554 139.147 -5.55112e-17
322 1 135.523 112.432 -5.55112e-17
323 2 148.076 163.202 -5.55112e-17
324 2 151.93 87.1376 -5.55112e-17
325 2 199.852 90.4133 -5.55112e-17
326 1 92.3262 183.145 -5.55112e-17
327 1 17.8895 15.4468 -5.55112e-17
328 2 14.8013 147.144 -5.55112e-17
329 2 11.8578 148.068 -5.55112e-17
330 2 171.983 177.276 -5.55112e-17
331 2 86.5466 35.8362 -5.55112e-17
332 2 139.212 160.452 -5.55112e-17
333 2 149.357 137.996 -5.55112e-17
334 2 187.568 50.0304 -5.55112e-17
335 1 72.6395 86.2879 -5.55112e-17
336 2 217.318 50.71 -5.55112e-17
337 2 71.6546 36.3347 -5.55112e-17
338 1 100.508 35.4317 -5.55112e-17
339 2 73.6496 123.418 -5.55112e-17
340 2 217.471 147.432 -5.55112e-17
341 2 158.757 41.5431 -5.55112e-17
342 2 184.156 202.925 -5.55112e-17
343 2 17.0819 49.2646 -5.55112e-17
344 1 42.2615 73.9697 -5.55112e-17
345 2 94.8149 125.071 -5.55112e-17
346 2 57.2877 30.9912 -5.55112e-17
347 1 128.823 34.1909 -5.55112e-17
348 1 147.827 71.7456 -5.55112e-17
349 2 143.377 70.8342 -5.55112e-17
350 2 103.507 8.0736 -5.55112e-17
351 1 23.5389 113.11 -5.55112e-17
352 1 2.47498 76.8915 -5.55112e-17
353 2 103.26 67.1509 -5.55112e-17
354 2 116.539 79.7954 -5.55112e-17
355 1 215.171 61.7345 -5.55112e-17
356 2 203.307 195.154 -5.55112e-17
357 1 168.732 12.8164 -5.55112e-17
358 1 213.564 138.891 -5.55112e-17
359 1 37.2657 90.607 -5.55112e-17
360 1 91.4258 115.965 -5.55112e-17
361 2 63.6997 91.9408 -5.55112e-17
362 2 168.338 162.719 -5.55112e-17
363 1 26.7979 178.166 -5.55112e-17
364 2 152.703 209.484 -5.55112e-17
365 1 122.639 72.5558 -5.55112e-17
366 1 70.3432 9.14802 -5.55112e-17
367 1 135.6 196.763 -5.55112e-17
368 1 206.781 215.893 -5.55112e-17
369 2 159.229 197.514 -5.55112e-17
370 1 90.0123 7.4031 -5.55112e-17
371 2 166.945 188.387 -5.55112e-17
372 1 148.002 39.7466 -5.55112e-17
373 2 14.5278 84.9171 -5.55112e-17
374 2 168.852 22.0452 -5.55112e-17
375 1 170.638 5.61233 -5.55112e-17
376 1 99.7244 125.291 -5.55112e-17
377 2 96.2424 80.6028 -5.55112e-17
378 2 34.0193 199.751 -5.55112e-17
379 2 105.174 98.6163 -5.55112e-17
380 1 191.035 210.614 -5.55112e-17
381 1 8.33868 10.3721 -5.55112e-17
382 1 14.9766 175.7 -5.55112e-17
383 1 183.062 104.29 -5.55112e-17
384 2 5.03337 122.105 -5.55112e-17
385 1 90.1249 151.034 -5.55112e-17
386 2 28.6588 24.0532 -5.55112e-17
387 1 174.684 114.035 -5.55112e-17
388 1 175.486 31.5359 -5.55112e-17
389 2 100.936 138.187 -5.55112e-17
390 1 61.5341 167.743 -5.55112e-17
391 1 5.42224 23.8262 -5.55112e-17
392 2 178.041 4.24029 -5.55112e-17
393 2 140.891 148.38 -5.55112e-17
394 1 177.462 17.3408 -5.55112e-17
395 1 193.067 104.537 -5.55112e-17
396 2 41.2264 167.061 -5.55112e-17
397 1 166.699 50.5253 -5.55112e-17
398 2 147.124 13.5947 -5.55112e-17
399 2 113.356 139.508 -5.55112e-17
400 2 111.905 50.9689 -5.55112e-17
401 2 151.184 61.4459 -5.55112e-17
402 1 153.307 175.743 -5.55112e-17
403 1 87.9209 215.638 -5.55112e-17
404 2 155.184 77.8477 -5.55112e-17
405 1 188.238 206.457 -5.55112e-17
406 2 105.154 196.63 -5.55112e-17
407 1 110.517 62.8373 -5.55112e-17
408 1 43.9892 39.0152 -5.55112e-17
409 2 52.0994 163.589 -5.55112e-17
410 2 125.404 145.727 -5.55112e-17
411 1 102.044 154.976 -5.55112e-17
412 1 32.0968 121.541 -5.55112e-17
413 1 29.0403 7.23649 -5.55112e-17
414 2 93.9697 54.196 -5.55112e-17
415 1 202.048 4.32144 -5.55112e-17
416 1 106.751 86.9273 -5.55112e-17
417 2 1.20164 114.84 -5.55112e-17
418 2 96.6676 216.99 -5.55112e-17
419 2 129.071 125.886 -5.55112e-17
420 2 149.874 122.082 -5.55112e-17
421 1 80.9805 105.868 -5.55112e-17
422 1 110.905 216.602 -5.55112e-17
423 2 125.819 12.8173 -5.55112e-17
424 2 160.247 144.812 -5.55112e-17
425 2 210.81 54.9335 -5.55112e-17
426 1 132.422 30.4487 -5.55112e-17
427 2 175.049 93.8901 -5.55112e-17
428 1 0.445077 25.5454 -5.55112e-17
429 2 108.54 215.501 -5.55112e-17
430 2 187.996 120.78 -5.55112e-17
431 1 174.122 54.4105 -5.55112e-17
432 2 157.844 79.0595 -5.55112e-17
433 1 27.9372 132.072 -5.55112e-17
434 1 111.747 165.952 -5.55112e-17
435 1 142.544 141.119 -5.55112e-17
436 2 27.2085 147.304 -5.55112e-17
437 2 53.4665 43.4616 -5.55112e-17
438 2 154.397 25.2042 -5.55112e-17
439 2 184.022 2.26194 -5.55112e-17
440 2 160.82 175.931 -5.55112e-17
441 1 36.0559 209.749 -5.55112e-17
442 1 90.7593 34.8293 -5.55112e-17
443 2 198.795 39.4383 -5.55112e-17
444 1 95.2991 186.416 -5.55112e-17
445 1 5.24995 94.0133 -5.55112e-17
446 2 190.236 199.409 -5.55112e-17
447 2 66.2675 149.247 -5.55112e-17
448 2 94.8967 191.008 -5.55112e-17
449 1 82.8562 184.237 -5.55112e-17
450 1 190.993 157.534 -5.55112e-17
451 1 41.5116 147.396 -5.55112e-17
452 2 191.318 106.616 -5.55112e-17
453 1 24.3604 72.1939 -5.55112e-17
454 1 25.8557 35.5553 -5.55112e-17
455 2 81.472 46.9313 -5.55112e-17
456 1 187.368 102.324 -5.55112e-17
457 2 155.275 11.4099 -5.55112e-17
458 2 122.957 33.0235 -5.55112e-17
459 2 207.704 218.07 -5.55112e-17
460 1 6.67922 212.854 -5.55112e-17
461 1 43.4606 84.8995 -5.55112e-17
462 1 67.9349 207.355 -5.55112e-17
463 2 8.71377 136.444 -5.55112e-17
464 2 193.243 212.438 -5.55112e-17
465 1 214.092 150.793 -5.55112e-17
466 2 71.9004 111.928 -5.55112e-17
467 2 89.8078 75.7167 -5.55112e-17
468 2 133.693 187.088 -5.55112e-17
469 2 205.526 169.483 -5.55112e-17
470 2 166.259 143.684 -5.55112e-17
471 2 62.2165 4.95941 -5.55112e-17
472 2 123.897 168.359 -5.55112e-17
473 2 214.317 101.138 -5.55112e-17
474 2 131.579 167.245 -5.55112e-17
475 1 22.7908 61.0086 -5.55112e-17
476 2 215.629 37.3376 -5.55112e-17
477 1 151.361 129.015 -5.55112e-17
478 1 48.9201 104.349 -5.55112e-17
479 2 24.012 37.4075 -5.55112e-17
480 1 67.7258 25.6005 -5.55112e-17
481 1 201.267 124.054 -5.55112e-17
482 2 74.5129 151.972 -5.55112e-17
483 1 165.851 169.026 -5.55112e-17
484 1 198.217 85.5758 -5.55112e-17
485 2 170.85 69.8236 -5.55112e-17
486 1 211.468 123.678 -5.55112e-17
487 1 86.7515 122.185 -5.55112e-17
488 1 211.243 77.1263 -5.55112e-17
489 1 81.6906 72.6357 -5.55112e-17
490 1 22.2002 32.035 -5.55112e-17
491 1 215.746 172.698 -5.55112e-17
492 2 210.372 197.536 -5.55112e-17
493 1 7.47955 87.197 -5.55112e-17
494 2 26.2549 202.879 -5.55112e-17
495 1 160.829 199.46 -5.55112e-17
496 1 130.803 58.2532 -5.55112e-17
497 1 52.7434 100.001 -5.55112e-17
498 2 52.2393 58.7231 -5.55112e-17
499 2 115.826 0.917968 -5.55112e-17
500 2 7.76296 24.4757 -5.55112e-17
501 2 105.592 216.228 -5.55112e-17
502 2 115.739 71.9113 -5.55112e-17
503 2 65.89 46.7928 -5.55112e-17
504 2 26.8423 108.852 -5.55112e-17
505 2 90.405 82.9677 -5.55112e-17
506 1 174.73 155.005 -5.55112e-17
507 2 18.0949 99.3479 -5.55112e-17
508 1 128.504 8.54954 -5.55112e-17
509 1 70.379 146.413 -5.55112e-17
510 1 138.071 42.7431 -5.55112e-17
511 2 168.239 123.92 -5.55112e-17
512 1 104.423 134.528 -5.55112e-17
513 2 31.6525 6.1822 -5.55112e-17
514 2 16.2289 77.8521 -5.55112e-17
515 1 37.1679 212.946 -5.55112e-17
516 2 157.213 112.051 -5.55112e-17
517 1 142.271 90.83 -5.55112e-17
518 2 132.033 138.958 -5.55112e-17
519 1 41.4715 169.541 -5.55112e-17
520 2 74.6646 57.5043 -5.55112e-17
521 2 216.985 55.6283 -5.55112e-17
522 1 91.5774 105.379 -5.55112e-17
523 1 78.3265 34.6256 -5.55112e-17
524 2 11.9242 130.478 -5.55112e-17
525 2 2.32421 210.63 -5.55112e-17
526 2 99.7009 211.586 -5.55112e-17
527 1 173.13 166.552 -5.55112e-17
528 1 71.7938 177.757 -5.55112e-17
529 2 103.082 11.1195 -5.55112e-17
530 2 40.4867 201.304 -5.55112e-17
531 2 29.5936 109.279 -5.55112e-17
532 1 194.863 23.8772 -5.55112e-17
533 2 129.195 44.5121 -5.55112e-17
534 1 199.946 213.186 -5.55112e-17
535 1 180.969 39.8611 -5.55112e-17
536 2 213.277 136.307 -5.55112e-17
537 1 138.012 10.3555 -5.55112e-17
538 1 144.064 128.24 -5.55112e-17
539 2 4.96674 117.529 -5.55112e-17
540 1 216.542 59.562 -5.55112e-17
541 1 191.918 35.4234 -5.55112e-17
542 1 34.1493 105.636 -5.55112e-17
543 2 56.0388 81.3924 -5.55112e-17
544 1 162.54 215.003 -5.55112e-17
545 1 144.487 180.658 -5.55112e-17
546 2 110.382 148.608 -5.55112e-17
547 1 170.621 183.912 -5.55112e-17
548 1 212.153 182.01 -5.55112e-17
549 2 218.973 135.849 -5.55112e-17
550 2 57.33 126.859 -5.55112e-17
551 2 196.943 182.003 -5.55112e-17
552 1 46.5084 39.8067 -5.55112e-17
553 2 185.975 67.6401 -5.55112e-17
554 2 121.334 158.3 -5.55112e-17
555 2 139.561 187.677 -5.55112e-17
556 1 123.279 125.97 -5.55112e-17
557 1 194.843 100.003 -5.55112e-17
558 1 178.292 127.26 -5.55112e-17
559 2 167.444 173.079 -5.55112e-17
560 2 48.6275 35.768 -5.55112e-17
561 2 12.8151 92.0139 -5.55112e-17
562 2 124.444 105.15 -5.55112e-17
563 1 34.0283 44.8175 -5.55112e-17
564 2 186.881 123.999 -5.55112e-17
565 2 183.941 111.891 -5.55112e-17
566 2 217.62 23.3982 -5.55112e-17
567 1 122.334 44.2155 -5.55112e-17
568 1 88.6507 73.1452 -5.55112e-17
569 2 2.52561 18.093 -5.55112e-17
570 2 74.6898 69.3011 -5.55112e-17
571 2 36.4544 37.6582 -5.55112e-17
572 1 92.2987 7.05078 -5.55112e-17
573 2 127.044 184.576 -5.55112e-17
574 2 87.8 119.933 -5.55112e-17
575 1 83.2494 84.549 -5.55112e-17
576 1 45.882 79.9295 -5.55112e-17
577 1 63.1345 128.265 -5.55112e-17
578 1 145.447 132.763 -5.55112e-17
579 2 53.5873 199.848 -5.55112e-17
580 1 57.8032 173.426 -5.55112e-17
581 1 113.405 132.042 -5.55112e-17
582 2 182.093 101.885 -5.55112e-17
583 2 140.882 110.313 -5.55112e-17
584 2 8.53663 4.36558 -5.55112e-17
585 1 207.447 114.772 -5.55112e-17
586 1 144.093 186.064 -5.55112e-17
587 1 127.426 19.7808 -5.55112e-17
588 2 136.979 179.934 -5.55112e-17
589 1 167.346 182.913 -5.55112e-17
590 2 25.9289 113.207 -5.55112e-17
591 2 27.0058 123.441 -5.55112e-17
592 1 3.0422 89.1191 -5.55112e-17
593 1 152.912 173.159 -5.55112e-17
594 1 66.1372 203.593 -5.55112e-17
595 1 91.362 198.64 -5.55112e-17
596 2 84.364 102.854 -5.55112e-17
597 2 58.0221 41.0932 -5.55112e-17
598 2 162.54 159.024 -5.55112e-17
599 2 49.385 68.6962 -5.55112e-17
600 2 66.0277 183.73 -5.55112e-17
601 1 90.6683 196.488 -5.55112e-17
602 1 113.499 31.3047 -5.55112e-17
603 2 21.6507 180.433 -5.55112e-17
604 1 210.1 141.019 -5.55112e-17
605 2 181.163 217.088 -5.55112e-17
606 2 18.7814 200.554 -5.55112e-17
607 2 68.2588 127.175 -5.55112e-17
608 2 51.3271 36.9007 -5.55112e-17
609 1 107.719 28.1718 -5.55112e-17
610 2 164.296 133.204 -5.55112e-17
611 1 165.328 37.2656 -5.55112e-17
612 1 192.665 63.0111 -5.55112e-17
613 2 37.1169 149.176 -5.55112e-17
614 1 192.795 72.7218 -5.55112e-17
615 1 41.4803 33.2239 -5.55112e-17
616 2 70.8626 87.9564 -5.55112e-17
617 1 13.5335 98.7959 -5.55112e-17
618 1 105.653 71.1044 -5.55112e-17
619 1 81.5439 181.878 -5.55112e-17
620 2 67.1696 178.945 -5.55112e-17
621 2 94.606 6.47239 -5.55112e-17
622 2 78.4519 125.222 -5.55112e-17
623 2 34.9685 51.6436 -5.55112e-17
624 1 121.747 186.953 -5.55112e-17
625 2 44.2427 9.82307 -5.55112e-17
626 1 25.8302 106.184 -5.55112e-17
627 2 14.3588 60.0992 -5.55112e-17
628 1 54.8267 217.719 -5.55112e-17
629 1 22.1609 15.4756 -5.55112e-17
630 2 102.712 132.277 -5.55112e-17
631 2 105.785 117.053 -5.55112e-17
632 2 29.7824 212.585 -5.55112e-17
633 2 11.5124 103.46 -5.55112e-17
634 2 82.7312 111.219 -5.55112e-17
635 2 50.22 136.052 -5.55112e-17
636 1 154.771 171.072 -5.55112e-17
637 1 119.05 112.109 -5.55112e-17
638 1 203.701 37.8155 -5.55112e-17
639 2 42.3408 179.871 -5.55112e-17
640 2 37.0511 75.03 -5.55112e-17
641 1 120.629 203.379 -5.55112e-17
642 2 98.385 45.1431 -5.55112e-17
643 1 98.217 101.117 -5.55112e-17
644 2 69.4649 212.275 -5.55112e-17
645 2 39.1966 130.28 -5.55112e-17
646 1 197.31 25.104 -5.55112e-17
647 2 180.678 25.2055 -5.55112e-17
648 2 67.7448 61.9248 -5.55112e-17
649 1 177.092 153.917 -5.55112e-17
650 1 17.3614 38.7835 -5.55112e-17
651 1 12.8309 174.484 -5.55112e-17
652 2 110.757 95.752 -5.55112e-17
653 2 144.479 116.29 -5.55112e-17
654 1 193.88 16.1442 -5.55112e-17
655 1 184.788 11.9552 -5.55112e-17
656 1 115.305 163.99 -5.55112e-17
657 1 94.8529 94.7271 -5.55112e-17
658 2 77.5822 87.1173 -5.55112e-17
659 2 189.914 173.817 -5.55112e-17
660 1 60.0595 179.467 -5.55112e-17
661 2 170.103 210.339 -5.55112e-17
662 2 217.583 3.56919 -5.55112e-17
663 1 52.6767 216.642 -5.55112e-17
664 1 108.095 39.4987 -5.55112e-17
665 1 135.975 6.58469 -5.55112e-17
666 1 189.874 10.1402 -5.55112e-17
667 1 156.615 159.72 -5.55112e-17
668 1 38.3095 26.8206 -5.55112e-17
669 1 47.9136 152.026 -5.55112e-17
670 2 121.025 53.6388 -5.55112e-17
671 1 19.558 49.4066 -5.55112e-17
672 1 69.2064 167.838 -5.55112e-17
673 2 95.2333 214.602 -5.55112e-17
674 2 152.417 170.235 -5.55112e-17
675 2 21.0203 92.5454 -5.55112e-17
676 1 215.269 142.184 -5.55112e-17
677 2 163.509 83.6669 -5.55112e-17
678 1 31.6932 168.944 -5.55112e-17
679 1 97.4432 90.5213 -5.55112e-17
680 2 148.895 130.123 -5.55112e-17
681 1 155.228 149.623 -5.55112e-17
682 1 159.192 155.019 -5.55112e-17
683 2 57.3999 34.2547 -5.55112e-17
684 1 153.794 13.6241 -5.55112e-17
685 1 142.599 43.8361 -5.55112e-17
686 1 161.11 105.701 -5.55112e-17
687 1 181.168 182.256 -5.55112e-17
688 1 30.4434 11.6555 -5.55112e-17
689 2 42.5044 212.789 -5.55112e-17
690 1 19.5501 178.786 -5.55112e-17
691 2 62.5957 174.519 -5.55112e-17
692 2 46.3596 164.297 -5.55112e-17
693 1 140.855 165.094 -5.55112e-17
694 2 119.227 75.4868 -5.55112e-17
695 2 145.753 145.854 -5.55112e-17
696 2 74.15 17.936 -5.55112e-17
697 1 93.7451 170.002 -5.55112e-17
698 2 68.999 170.328 -5.55112e-17
699 1 175.871 79.082 -5.55112e-17
700 2 39.3774 206.21 -5.55112e-17
701 2 104.203 95.9213 -5.55112e-17
702 1 80.1746 101.489 -5.55112e-17
703 1 5.38618 195.666 -5.55112e-17
704 1 36.8828 207.457 -5.55112e-17
705 1 30.7594 18.9879 -5.55112e-17
706 1 35.1188 49.0871 -5.55112e-17
707 1 0.334056 117.141 -5.55112e-17
708 2 162.398 173.588 -5.55112e-17
709 1 70.1892 74.5356 -5.55112e-17
710 2 211.731 50.5614 -5.55112e-17
711 2 141.017 167.956 -5.55112e-17
712 1 111.626 4.61261 -5.55112e-17
713 1 90.9341 173.511 -5.55112e-17
714 2 80.5836 169.629 -5.55112e-17
715 2 1.1087 128.768 -5.55112e-17
716 1 97.2464 56.2976 -5.55112e-17
717 1 55.0679 32.8523 -5.55112e-17
718 2 205.534 144.121 -5.55112e-17
719 1 143.615 103.286 -5.55112e-17
720 2 128.054 212.115 -5.55112e-17
721 2 209.397 71.7523 -5.55112e-17
722 2 3.47654 159.222 -5.55112e-17
723 2 127.64 36.4866 -5.55112e-17
724 2 36.045 181.468 -5.55112e-17
725 2 73.0891 192.097 -5.55112e-17
726 2 42.2191 12.3855 -5.55112e-17
727 2 84.399 189.315 -5.55112e-17
728 1 43.6003 145.897 -5.55112e-17
729 2 152.82 56.1485 -5.55112e-17
730 2 103.949 112.147 -5.55112e-17
731 1 58.9454 200.146 -5.55112e-17
732 2 98.4573 82.6035 -5.55112e-17
733 2 200.241 215.826 -5.55112e-17
734 2 41.4195 76.5191 -5.55112e-17
735 2 165.729 9.53798 -5.55112e-17
736 1 193.598 142.922 -5.55112e-17
737 2 95.2264 19.5048 -5.55112e-17
738 2 143.003 198.918 -5.55112e-17
739 2 26.6927 215.456 -5.55112e-17
740 2 32.9795 202.596 -5.55112e-17
741 2 185.273 152.471 -5.55112e-17
742 1 180.02 99.9735 -5.55112e-17
743 2 210.723 157.387 -5.55112e-17
744 1 90.5795 176.134 -5.55112e-17
745 2 47.2661 10.2988 -5.55112e-17
746 1 199.869 72.1564 -5.55112e-17
747 1 196.381 199.973 -5.55112e-17
748 2 90.2007 127.18 -5.55112e-17
749 1 93.1375 199.83 -5.55112e-17
750 1 112.225 192.61 -5.55112e-17
751 1 200.598 106.474 -5.55112e-17
752 2 99.803 182.733 -5.55112e-17
753 1 71.3368 168.682 -5.55112e-17
754 2 173.167 14.4715 -5.55112e-17
755 1 73.2851 185.685 -5.55112e-17
756 2 194.123 18.806 -5.55112e-17
757 1 127.906 80.3855 -5.55112e-17
758 2 11.2167 60.0697 -5.55112e-17
759 1 23.0039 94.5812 -5.55112e-17
760 1 80.847 0.340894 -5.55112e-17
761 2 34.235 56.8457 -5.55112e-17
762 1 94.7827 90.227 -5.55112e-17
763 2 4.30631 91.6172 -5.55112e-17
764 2 11.2173 69.7253 -5.55112e-17
765 1 192.896 67.5999 -5.55112e-17
766 2 78.6126 212.991 -5.55112e-17
767 2 109.103 90.7493 -5.55112e-17
768 2 58.1212 170.675 -5.55112e-17
769 2 155.437 64.3645 -5.55112e-17
770 1 56.8316 28.2096 -5.55112e-17
771 1 24.142 63.5283 -5.55112e-17
772 1 80.2228 57.7773 -5.55112e-17
773 2 118.233 70.5581 -5.55112e-17
774 1 131.419 74.5304 -5.55112e-17
775 1 76.8316 22.8936 -5.55112e-17
776 2 93.1317 79.5786 -5.55112e-17
777 2 62.8919 20.3413 -5.55112e-17
778 1 95.0799 85.9644 -5.55112e-17
779 1 67.367 158.389 -5.55112e-17
780 2 49.3798 55.0885 -5.55112e-17
781 1 12.3627 94.3679 -5.55112e-17
782 2 149.271 114.398 -5.55112e-17
783 1 202.946 29.9526 -5.55112e-17
784 2 110.234 178.33 -5.55112e-17
785 1 82.0869 156.726 -5.55112e-17
786 1 86.8578 173.066 -5.55112e-17
787 2 210.941 138.234 -5.55112e-17
788 2 10.3993 40.7706 -5.55112e-17
789 2 41.5942 2.95851 -5.55112e-17
790 2 74.4062 88.2228 -5.55112e-17
791 2 59.9694 108.961 -5.55112e-17
792 1 100.709 102.116 -5.55112e-17
793 1 198.014 204.254 -5.55112e-17
794 2 63.8782 112.788 -5.55112e-17
795 2 46.7007 67.1085 -5.55112e-17
796 1 80.2772 119.351 -5.55112e-17
797 1 32.1977 102.169 -5.55112e-17
798 1 5.50376 202.741 -5.55112e-17
799 2 131.358 211.943 -5.55112e-17
800 1 106.898 135.69 -5.55112e-17
801 2 76.9147 61.9767 -5.55112e-17
802 1 89.6798 21.5862 -5.55112e-17
803 1 117.232 77.3568 -5.55112e-17
804 1 78.7957 160.183 -5.55112e-17
805 2 205.324 103.753 -5.55112e-17
806 2 79.4657 209.669 -5.55112e-17
807 2 20.6769 158.974 -5.55112e-17
808 2 14.0138 53.1525 -5.55112e-17
809 1 150.13 48.2007 -5.55112e-17
810 2 18.6818 107.364 -5.55112e-17
811 2 49.8829 3.80919 -5.55112e-17
812 1 18.171 46.6598 -5.55112e-17
813 1 44.8166 138.444 -5.55112e-17
814 1 72.6855 89.8557 -5.55112e-17
815 1 197.918 4.78838 -5.55112e-17
816 1 17.7016 23.432 -5.55112e-17
817 2 162.333 137.63 -5.55112e-17
818 2 142.455 46.6476 -5.55112e-17
819 2 54.7272 212.286 -5.55112e-17
820 1 192.361 181.771 -5.55112e-17
821 1 189.334 76.9854 -5.55112e-17
822 2 141.518 129.047 -5.55112e-17
823 1 175.812 5.8203 -5.55112e-17
824 1 59.5678 121.938 -5.55112e-17
825 1 204.601 33.3377 -5.55112e-17
826 2 155.476 80.6897 -5.55112e-17
827 2 10.0601 209.146 -5.55112e-17
828 1 10.8949 52.9316 -5.55112e-17
829 2 209.583 174.992 -5.55112e-17
830 1 100.689 107.722 -5.55112e-17
831 2 183.118 41.2772 -5.55112e-17
832 2 9.86652 116.343 -5.55112e-17
833 2 38.6498 45.4101 -5.55112e-17
834 1 162.751 86.1819 -5.55112e-17
835 1 43.4429 153.722 -5.55112e-17
836 1 52.669 218.916 -5.55112e-17
837 2 51.7152 74.7095 -5.55112e-17
838 2 147.609 210.124 -5.55112e-17
839 1 162.83 184.142 -5.55112e-17
840 2 170.677 165.065 -5.55112e-17
841 2 166.979 210.79 -5.55112e-17
842 1 211.063 208.916 -5.55112e-17
843 1 203.463 101.778 -5.55112e-17
844 2 24.9349 30.9336 -5.55112e-17
845 1 186.163 142.899 -5.55112e-17
846 2 122.072 56.7142 -5.55112e-17
847 1 119.838 217.857 -5.55112e-17
848 2 73.3866 159.438 -5.55112e-17
849 1 127.761 38.9073 -5.55112e-17
850 2 44.2429 121.78 -5.55112e-17
851 2 114.56 118.228 -5.55112e-17
852 1 74.9073 93.6554 -5.55112e-17
853 1 58.7451 217.641 -5.55112e-17
854 2 184.181 185.029 -5.55112e-17
855 2 137.188 95.1239 -5.55112e-17
856 1 178.524 185.627 -5.55112e-17