ITEM: TIMESTEP
0
ITEM: NUMBER OF ATOMS
7200
ITEM: BOX BOUNDS xy xz yz pp pp pp
0.0000000000000000e+00 2.1900000000000000e+02 0.0000000000000000e+00
0.0000000000000000e+00 2.1900000000000000e+02 0.0000000000000000e+00
-3.6499999999999999e-01 3.6499999999999999e-01 0.0000000000000000e+00
ITEM: ATOMS id type x y z
1 1 146.528 97.9925 -5.55112e-17
2 2 153.841 175.839 -5.55112e-17
3 2 215.385 91.361 -5.55112e-17
4 1 86.1257 161.588 -5.55112e-17
5 1 123.588 70.72 -5.55112e-17
6 1 31.3636 111.789 -5.55112e-17
7 2 38.2349 215.62 -5.55112e-17
8 2 36.555 106.712 -5.55112e-17
9 1 40.0532 166.97 -5.55112e-17
10 2 28.3011 42.8198 -5.55112e-17
11 2 76.3375 92.2183 -5.55112e-17
12 1 28.323 138.582 -5.55112e-17
13 2 188.511 137.462 -5.55112e-17
14 1 90.1004 34.1571 -5.55112e-17
15 2 109.654 12.5934 -5.55112e-17
16 2 5.79949 121.891 -5.55112e-17
17 1 121.515 159.504 -5.55112e-17
18 2 92.8003 210.862 -5.55112e-17
19 1 200.523 33.5159 -5.55112e-17
20 1 75.5096 150.869 -5.55112e-17
21 1 179.604 80.76 -5.55112e-17
22 2 134.664 119.725 -5.55112e-17
23 2 73.9172 160.684 -5.55112e-17
24 2 6.91541 171.774 -5.55112e-17
25 2 62.2358 217.911 -5.55112e-17
26 2 199.489 183.828 -5.55112e-17
27 1 44.5719 110.912 -5.55112e-17
28 2 34.3494 80.184 -5.55112e-17
29 2 156.725 34.1396 -5.55112e-17
30 2 50.9845 16.5785 -5.55112e-17
31 2 50.0917 89.6331 -5.55112e-17
32 1 58.3816 46.0549 -5.55112e-17
33 2 42.7964 10.0671 -5.55112e-17
34 2 140.523 84.7458 -5.55112e-17
35 2 64.3176 129.851 -5.55112e-17
36 1 171.374 110.404 -5.55112e-17
37 1 102.146 89.5711 -5.55112e-17
38 2 40.2351 198.214 -5.55112e-17
39 1 0.234071 20.8234 -5.55112e-17
40 2 82.4675 120.066 -5.55112e-17
41 1 87.8121 85.0164 -5.55112e-17
42 1 52.2531 24.0826 -5.55112e-17
43 1 166.526 174.979 -5.55112e-17
44 1 63.5178 28.8555 -5.55112e-17
45 2 179.299 170.121 -5.55112e-17
46 1 121.151 132.214 -5.55112e-17
47 2 65.7495 164.324 -5.55112e-17
48 2 118.125 64.2635 -5.55112e-17
49 1 15.7953 211.871 -5.55112e-17
50 2 156.106 182.167 -5.55112e-17
51 1 204.466 56.8186 -5.55112e-17
52 1 65.936 20.9688 -5.55112e-17
53 2 11.0136 110.39 -5.55112e-17
54 1 184.088 206.235 -5.55112e-17
55 2 189.28 117.862 -5.55112e-17
56 1 191.859 40.9451 -5.55112e-17
57 2 98.5765 74.281 -5.55112e-17
58 1 120.144 22.6131 -5.55112e-17
59 1 4.55294 206.95 -5.55112e-17
60 2 161.775 7.99211 -5.55112e-17
61 1 83.5671 184.726 -5.55112e-17
62 1 178.536 29.207 -5.55112e-17
63 2 185.413 134.824 -5.55112e-17
64 1 197.34 107.67 -5.55112e-17
65 2 206.64 140.482 -5.55112e-17
66 2 108.549 20.1507 -5.55112e-17
67 2 132.473 12.7983 -5.55112e-17
68 1 196.851 184.499 -5.55112e-17
69 2 149.685 7.17712 -5.55112e-17
70 1 82.1272 9.78629 -5.55112e-17
71 1 24.8997 88.0823 -5.55112e-17
72 2 149.223 94.0359 -5.55112e-17
73 2 56.9193 217.935 -5.55112e-17
74 2 198.162 157.098 -5.55112e-17
75 1 131.532 171.046 -5.55112e-17
76 2 63.0879 212.4 -5.55112e-17
77 2 63.3505 186.257 -5.55112e-17
78 1 206.673 99.1012 -5.55112e-17
79 2 145.314 209.473 -5.55112e-17
80 1 151.614 17.022 -5.55112e-17
81 1 83.1994 192.086 -5.55112e-17
82 1 127.228 184.805 -5.55112e-17
83 1 128.158 27.885 -5.55112e-17
84 2 51.7674 38.1609 -5.55112e-17
85 2 178.124 140.153 -5.55112e-17
86 2 45.0216 66.4282 -5.55112e-17
87 2 212.386 166.027 -5.55112e-17
88 1 94.5851 206.12 -5.55112e-17
89 2 133.602 29.2056 -5.55112e-17
90 2 163.163 79.6412 -5.55112e-17
91 2 69.6471 11.4776 -5.55112e-17
92 1 130.386 128.701 -5.55112e-17
93 2 205.904 12.4345 -5.55112e-17
94 2 133.413 199.508 -5.55112e-17
95 1 180.395 93.6662 -5.55112e-17
96 2 198.249 21.0561 -5.55112e-17
97 2 197.845 85.2795 -5.55112e-17
98 2 97.7691 56.7435 -5.55112e-17
99 1 127.867 5.34997 -5.55112e-17
100 2 17.7171 103.248 -5.55112e-17
101 1 143.415 216.529 -5.55112e-17
102 1 157.879 109.353 -5.55112e-17
103 2 142.697 128.564 -5.55112e-17
104 2 210.848 152.801 -5.55112e-17
105 1 175.584 141.572 -5.55112e-17
106 1 45.3513 162.002 -5.55112e-17
107 1 30.158 56.3211 -5.55112e-17
108 1 121.339 8.09247 -5.55112e-17
109 2 146.251 58.8774 -5.55112e-17
110 2 148.901 204.764 -5.55112e-17
111 1 13.9327 127.779 -5.55112e-17
112 2 71.8761 124.591 -5.55112e-17
113 1 16.4376 49.312 -5.55112e-17
114 1 169.593 106.929 -5.55112e-17
115 2 45.8875 216.806 -5.55112e-17
116 2 140.379 77.2959 -5.55112e-17
117 1 137.275 179.385 -5.55112e-17
118 1 70.5073 100.633 -5.55112e-17
119 2 41.2761 106.482 -5.55112e-17
120 2 92.0714 69.8117 -5.55112e-17
121 1 212.027 115.352 -5.55112e-17
122 2 189.76 43.0409 -5.55112e-17
123 2 60.8245 184.143 -5.55112e-17
124 1 104.064 117.249 -5.55112e-17
125 1 25.9577 137.827 -5.55112e-17
126 2 213.077 40.6945 -5.55112e-17
127 2 25.9054 65.4833 -5.55112e-17
128 1 120.047 34.3384 -5.55112e-17
129 1 106.172 158.995 -5.55112e-17
130 2 55.6336 77.6593 -5.55112e-17
131 1 203.383 81.1609 -5.55112e-17
132 1 213.905 62.3846 -5.55112e-17
133 1 210.969 81.9498 -5.55112e-17
134 1 120.043 166.129 -5.55112e-17
135 2 125.816 32.6064 -5.55112e-17
136 1 65.4143 46.8382 -5.55112e-17
137 1 99.8772 116.137 -5.55112e-17
138 2 124.192 154.114 -5.55112e-17
139 1 92.8839 182.761 -5.55112e-17
140 1 135.115 130.125 -5.55112e-17
141 1 147.987 209.459 -5.55112e-17
142 1 90.0685 152.333 -5.55112e-17
143 1 91.7408 157.072 -5.55112e-17
144 1 48.1765 170.45 -5.55112e-17
145 2 84.6834 26.9756 -5.55112e-17
146 1 130.597 47.3148 -5.55112e-17
147 2 45.9475 23.6902 -5.55112e-17
148 1 46.2436 35.6327 -5.55112e-17
149 1 144.533 46.0871 -5.55112e-17
150 2 192.408 171.098 -5.55112e-17
151 1 180.403 157.017 -5.55112e-17
152 1 32.8191 24.2219 -5.55112e-17
153 2 24.1406 214.231 -5.55112e-17
154 1 127.633 50.1197 -5.55112e-17
155 2 5.02524 39.3838 -5.55112e-17
156 2 96.1592 4.28687 -5.55112e-17
157 2 58.8042 90.3201 -5.55112e-17
158 2 101.411 209.972 -5.55112e-17
159 2 23.7076 133.881 -5.55112e-17
160 2 150.432 21.5458 -5.55112e-17
161 2 44.0913 206.402 -5.55112e-17
162 1 64.0812 196.644 -5.55112e-17
163 1 213.162 171.955 -5.55112e-17
164 2 68.6953 188.933 -5.55112e-17
165 1 15.9619 192.577 -5.55112e-17
166 2 19.6388 208.031 -5.55112e-17
167 1 74.5652 11.743 -5.55112e-17
168 1 70.4976 88.4878 -5.55112e-17
169 2 208.171 16.5299 -5.55112e-17
170 1 183.462 194.906 -5.55112e-17
171 1 107.846 110.249 -5.55112e-17
172 1 93.8348 147.201 -5.55112e-17
173 1 34.7226 115.077 -5.55112e-17
174 2 105.416 76.6947 -5.55112e-17
175 2 100.008 119.195 -5.55112e-17
176 1 70.6972 151.92 -5.55112e-17
177 2 70.3598 143.424 -5.55112e-17
178 1 94.2701 68.2601 -5.55112e-17
179 2 19.6492 173.475 -5.55112e-17
180 1 116.901 74.262 -5.55112e-17
181 1 91.6081 161.544 -5.55112e-17
182 1 142.063 102.957 -5.55112e-17
183 1 197.481 165.185 -5.55112e-17
184 2 132.417 45.5906 -5.55112e-17
185 2 92.0793 208.029 -5.55112e-17
186 2 112.87 137.584 -5.55112e-17
187 2 176.141 208.575 -5.55112e-17
188 2 44.5174 38.0706 -5.55112e-17
189 1 157.117 146.549 -5.55112e-17
190 1 34.7515 198.683 -5.55112e-17
191 2 71.9579 110.612 -5.55112e-17
192 2 72.5576 191.287 -5.55112e-17
193 1 145.27 129.505 -5.55112e-17
194 1 177.373 65.8224 -5.55112e-17
195 2 25.9819 31.4581 -5.55112e-17
196 1 41.0316 72.2004 -5.55112e-17
197 2 82.5189 50.7693 -5.55112e-17
198 2 99.7281 88.5108 -5.55112e-17
199 2 11.3927 189.02 -5.55112e-17
200 2 21.3853 41.4224 -5.55112e-17
201 2 125.182 168.455 -5.55112e-17
202 1 33.0852 29.2119 -5.55112e-17
203 1 103.331 146.534 -5.55112e-17
204 2 46.9392 109.496 -5.55112e-17
205 2 20.7342 128.147 -5.55112e-17
206 2 113.998 212.005 -5.55112e-17
207 1 45.4225 33.1194 -5.55112e-17
208 2 143.306 175.384 -5.55112e-17
209 2 212.813 87.2267 -5.55112e-17
210 1 23.1187 211.475 -5.55112e-17
211 1 7.67755 130.619 -5.55112e-17
212 1 58.2558 67.8568 -5.55112e-17
213 1 118.925 73.2143 -5.55112e-17
214 2 178.977 148.781 -5.55112e-17
215 1 169.462 131.979 -5.55112e-17
216 1 196.991 41.1534 -5.55112e-17
217 1 169.529 51.9208 -5.55112e-17
218 2 21.1001 143.394 -5.55112e-17
219 2 81.9515 75.1405 -5.55112e-17
220 1 32.1315 127.364 -5.55112e-17
221 2 99.8745 30.2415 -5.55112e-17
222 1 163.485 30.2875 -5.55112e-17
223 1 88.3158 46.4506 -5.55112e-17
224 2 16.2524 142.08 -5.55112e-17
225 2 144.795 10.9086 -5.55112e-17
226 1 27.6671 66.9167 -5.55112e-17
227 2 136.978 41.321 -5.55112e-17
228 2 74.701 28.254 -5.55112e-17
229 1 63.0508 125.643 -5.55112e-17
230 1 13.1567 130.121 -5.55112e-17
231 2 181.292 82.6035 -5.55112e-17
232 1 165.173 17.1217 -5.55112e-17
233 2 213.091 162.884 -5.55112e-17
234 1 51.1371 105.01 -5.55112e-17
235 1 163.374 120.286 -5.55112e-17
236 2 213.629 46.3483 -5.55112e-17
237 2 62.7368 164.742 -5.55112e-17
238 2 56.9161 193.495 -5.55112e-17
239 1 190.253 143.909 -5.55112e-17
240 1 217.104 31.2054 -5.55112e-17
241 2 57.0685 178.044 -5.55112e-17
242 1 21.8414 141.036 -5.55112e-17
243 2 14.9088 21.3964 -5.55112e-17
244 2 97.0813 61.3566 -5.55112e-17
245 1 210.747 29.9936 -5.55112e-17
246 2 134.648 132.876 -5.55112e-17
247 2 65.2708 121.006 -5.55112e-17
248 1 56.0246 51.6589 -5.55112e-17
249 1 33.8905 174.938 -5.55112e-17
250 1 17.4678 151.329 -5.55112e-17
251 2 145.007 52.2746 -5.55112e-17
252 1 190.56 51.7938 -5.55112e-17
253 2 128.537 69.4685 -5.55112e-17
254 2 82.1368 117.154 -5.55112e-17
255 2 48.1489 17.2333 -5.55112e-17
256 1 190.321 198.663 -5.55112e-17
257 2 167.364 66.0205 -5.55112e-17
258 1 194.274 116.345 -5.55112e-17
259 2 171.416 199.805 -5.55112e-17
260 1 97.9138 101.388 -5.55112e-17
261 2 111.421 194.688 -5.55112e-17
262 2 103.013 56.064 -5.55112e-17
263 2 193.242 51.5994 -5.55112e-17
264 1 217.965 218.542 -5.55112e-17
265 1 100.714 187.874 -5.55112e-17
266 1 217.176 16.0083 -5.55112e-17
267 2 17.413 124.565 -5.55112e-17
268 1 110.014 155.685 -5.55112e-17
269 2 89.7773 99.0334 -5.55112e-17
270 2 168.23 29.9034 -5.55112e-17
271 2 1.70923 93.9852 -5.55112e-17
272 1 69.7177 18.8694 -5.55112e-17
273 1 143.5 50.0528 -5.55112e-17
274 1 98.081 46.8762 -5.55112e-17
275 1 201.423 63.08 -5.55112e-17
276 1 113.33 162.271 -5.55112e-17
277 1 134.575 2.31129 -5.55112e-17
278 2 1.1016 181.689 -5.55112e-17
279 2 65.0114 33.5052 -5.55112e-17
280 1 87.6572 191.962 -5.55112e-17
281 2 118.697 168.669 -5.55112e-17
282 2 106.833 26.2687 -5.55112e-17
283 2 8.80369 43.6621 -5.55112e-17
284 1 134.248 96.9584 -5.55112e-17
285 1 215.766 158.359 -5.55112e-17
286 2 149.812 211.579 -5.55112e-17
287 2 166.406 157.147 -5.55112e-17
288 1 14.8567 104.005 -5.55112e-17
289 2 42.1618 193.395 -5.55112e-17
290 1 64.8062 148.999 -5.55112e-17
291 2 9.23532 122.667 -5.55112e-17
292 1 54.2142 63.3138 -5.55112e-17
293 1 183.948 186.986 -5.55112e-17
294 1 174.317 218.917 -5.55112e-17
295 2 178.735 22.0351 -5.55112e-17
296 1 188.56 147.82 -5.55112e-17
297 1 185.686 146.192 -5.55112e-17
298 2 165.586 31.9359 -5.55112e-17
299 1 198.415 145.496 -5.55112e-17
300 2 72.7288 150.523 -5.55112e-17
301 2 127.609 98.0158 -5.55112e-17
302 2 76.8299 203.106 -5.55112e-17
303 1 126.355 182.296 -5.55112e-17
304 1 190.59 202.86 -5.55112e-17
305 1 24.0013 139.88 -5.55112e-17
306 2 73.0246 211.438 -5.55112e-17
307 2 23.584 193.295 -5.55112e-17
308 2 203.167 4.84757 -5.55112e-17
309 1 206.59 185.808 -5.55112e-17
310 1 165.242 81.3433 -5.55112e-17
311 1 16.0581 170.284 -5.55112e-17
312 2 36.3175 67.1537 -5.55112e-17
313 2 30.2301 162.825 -5.55112e-17
314 1 103.723 133.319 -5.55112e-17
315 2 209.872 32.3659 -5.55112e-17
316 1 32.7748 169.582 -5.55112e-17
317 1 21.4366 6.82232 -5.55112e-17
318 1 217.672 103.614 -5.55112e-17
319 2 45.0219 186.701 -5.55112e-17
320 1 183.646 55.5312 -5.55112e-17
321 1 171.41 73.2244 -5.55112e-17
322 1 155.4 36.5927 -5.55112e-17
323 2 1.8804 189.378 -5.55112e-17
324 2 36.0866 40.0853 -5.55112e-17
325 2 89.7951 187.984 -5.55112e-17
326 1 55.6098 19.3625 -5.55112e-17
327 1 4.49814 47.0434 -5.55112e-17
328 2 131.404 68.5388 -5.55112e-17
329 2 98.7551 125.628 -5.55112e-17
330 2 128.3 47.4789 -5.55112e-17
331 2 205.444 82.9062 -5.55112e-17
332 2 74.9785 2.59079 -5.55112e-17
333 2 179.571 186.095 -5.55112e-17
334 2 143.793 213.831 -5.55112e-17
335 1 139.866 101.484 -5.55112e-17
336 2 216.996 181.388 -5.55112e-17
337 2 89.8809 90.1453 -5.55112e-17
338 1 162.736 109.766 -5.55112e-17
339 2 157.656 31.2323 -5.55112e-17
340 2 159.098 186.768 -5.55112e-17
341 2 114.982 111.076 -5.55112e-17
342 2 94.279 56.6907 -5.55112e-17
343 2 215.688 80.5971 -5.55112e-17
344 1 12.1499 165.828 -5.55112e-17
345 2 204.932 195.984 -5.55112e-17
346 2 69.1834 146.412 -5.55112e-17
347 1 134.19 18.4103 -5.55112e-17
348 1 111.695 179.556 -5.55112e-17
349 2 165.923 188.865 -5.55112e-17
350 2 160.087 129.852 -5.55112e-17
351 1 27.6072 192.176 -5.55112e-17
352 1 155.307 184.806 -5.55112e-17
353 2 128.739 91.7844 -5.55112e-17
354 2 68.8568 124.783 -5.55112e-17
355 1 218.319 214.566 -5.55112e-17
356 2 64.567 133.101 -5.55112e-17
357 1 49.2486 57.1683 -5.55112e-17
358 1 154.132 162.839 -5.55112e-17
359 1 59.7109 168.133 -5.55112e-17
360 1 154.097 97.7463 -5.55112e-17
361 2 202.864 42.4872 -5.55112e-17
362 2 203.319 88.4182 -5.55112e-17
363 1 144.031 101.84 -5.55112e-17
364 2 141.304 182.132 -5.55112e-17
365 1 175.079 28.1059 -5.55112e-17
366 1 117.867 140.78 -5.55112e-17
367 1 23.3989 58.9012 -5.55112e-17
368 1 175.47 132.537 -5.55112e-17
369 2 155.44 47.8112 -5.55112e-17
370 1 108.469 172.874 -5.55112e-17
371 2 120.813 87.6839 -5.55112e-17
372 1 98.4604 59.2591 -5.55112e-17
373 2 214.686 14.6674 -5.55112e-17
374 2 39.9232 16.9257 -5.55112e-17
375 1 94.3084 130.686 -5.55112e-17
376 1 77.8922 9.34171 -5.55112e-17
377 2 16.6299 23.9343 -5.55112e-17
378 2 61.8538 57.379 -5.55112e-17
379 2 174.071 55.9565 -5.55112e-17
380 1 37.2465 80.9905 -5.55112e-17
381 1 175.929 121.432 -5.55112e-17
382 1 57.5733 92.4696 -5.55112e-17
383 1 95.9438 173.141 -5.55112e-17
384 2 165.411 84.0756 -5.55112e-17
385 1 147.021 9.26044 -5.55112e-17
386 2 138.706 4.37346 -5.55112e-17
387 1 66.8209 129.09 -5.55112e-17
388 1 77.6388 191.754 -5.55112e-17
389 2 138.866 162.539 -5.55112e-17
390 1 11.5489 96.086 -5.55112e-17
391 1 105.838 8.6836 -5.55112e-17
392 2 214.914 178.731 -5.55112e-17
393 2 144.026 164.109 -5.55112e-17
394 1 131.036 190.394 -5.55112e-17
395 1 187.524 103.422 -5.55112e-17
396 2 8.38851 6.5146 -5.55112e-17
397 1 136.439 195.402 -5.55112e-17
398 2 41.3567 164.397 -5.55112e-17
399 2 73.7958 40.4336 -5.55112e-17
400 2 75.7644 216.003 -5.55112e-17
401 2 174.949 95.4456 -5.55112e-17
402 1 137.667 44.0094 -5.55112e-17
403 1 141.566 37.2726 -5.55112e-17
404 2 196.908 192.951 -5.55112e-17
405 1 21.592 153.129 -5.55112e-17
406 2 200.537 45.1574 -5.55112e-17
407 1 29.4001 84.2232 -5.55112e-17
408 1 87.494 33.1074 -5.55112e-17
409 2 42.6807 54.79 -5.55112e-17
410 2 213.491 109.797 -5.55112e-17
411 1 63.4295 85.65 -5.55112e-17
412 1 38.5329 218.809 -5.55112e-17
413 1 199.176 147.987 -5.55112e-17
414 2 200.584 124.496 -5.55112e-17
415 1 206.524 123.194 -5.55112e-17
416 1 188.459 197.239 -5.55112e-17
417 2 36.5274 72.9123 -5.55112e-17
418 2 48.0164 76.2692 -5.55112e-17
419 2 23.0566 67.3063 -5.55112e-17
420 2 201.363 145.709 -5.55112e-17
421 1 51.8681 49.9836 -5.55112e-17
422 1 109.378 165.094 -5.55112e-17
423 2 111.094 58.3529 -5.55112e-17
424 2 181.771 174.306 -5.55112e-17
425 2 146.651 108.346 -5.55112e-17
426 1 111.189 204.732 -5.55112e-17
427 2 168.383 149.812 -5.55112e-17
428 1 209.484 179.626 -5.55112e-17
429 2 108.157 8.04879 -5.55112e-17
430 2 97.7598 92.1513 -5.55112e-17
431 1 126.035 175.231 -5.55112e-17
432 2 116.433 77.194 -5.55112e-17
433 1 97.6835 117.324 -5.55112e-17
434 1 89.1488 161.54 -5.55112e-17
435 1 30.3107 137.149 -5.55112e-17
436 2 167.939 118.759 -5.55112e-17
437 2 30.3404 9.34936 -5.55112e-17
438 2 62.1161 167.355 -5.55112e-17
439 2 7.55196 212.886 -5.55112e-17
440 2 171.697 14.9214 -5.55112e-17
441 1 209.067 203.863 -5.55112e-17
442 1 32.4898 158.657 -5.55112e-17
443 2 140.994 217.003 -5.55112e-17
444 1 215.456 47.7211 -5.55112e-17
445 1 131.614 51.5214 -5.55112e-17
446 2 16.1134 12.4134 -5.55112e-17
447 2 129.013 74.6588 -5.55112e-17
448 2 196.046 34.5312 -5.55112e-17
449 1 77.3546 69.6225 -5.55112e-17
450 1 116.932 5.81239 -5.55112e-17
451 1 135.584 187.988 -5.55112e-17
452 2 88.5445 103.874 -5.55112e-17
453 1 191.237 160.085 -5.55112e-17
454 1 198.442 203.659 -5.55112e-17
455 2 13.8603 28.7621 -5.55112e-17
456 1 174.417 50.1448 -5.55112e-17
457 2 60.985 17.2712 -5.55112e-17
458 2 182.032 69.4692 -5.55112e-17
459 2 108.77 217.373 -5.55112e-17
460 1 39.8395 21.6454 -5.55112e-17
461 1 88.763 157.038 -5.55112e-17
462 1 8.77305 180.019 -5.55112e-17
463 2 11.2452 31.4271 -5.55112e-17
464 2 63.4276 215.065 -5.55112e-17
465 1 2.00233 124.894 -5.55112e-17
466 2 56.3697 88.2381 -5.55112e-17
467 2 37.6881 126.404 -5.55112e-17
468 2 189.251 89.9588 -5.55112e-17
469 2 105.881 173.44 -5.55112e-17
470 2 52.2206 139.24 -5.55112e-17
471 2 11.8494 26.269 -5.55112e-17
472 2 184.754 79.0072 -5.55112e-17
473 2 72.7053 116.7 -5.55112e-17
474 2 150.306 196.652 -5.55112e-17
475 1 14.4969 131.961 -5.55112e-17
476 2 79.5161 209.472 -5.55112e-17
477 1 189.787 158.832 -5.55112e-17
478 1 22.2317 88.2445 -5.55112e-17
479 2 107.148 73.0188 -5.55112e-17
480 1 71.1673 93.9796 -5.55112e-17
481 1 127.703 135.687 -5.55112e-17
482 2 113.504 181.305 -5.55112e-17
483 1 7.00215 41.2139 -5.55112e-17
484 1 16.551 71.7782 -5.55112e-17
485 2 135.481 215.75 -5.55112e-17
486 1 62.4722 83.3451 -5.55112e-17
487 1 126.376 198.605 -5.55112e-17
488 1 134.6 197.078 -5.55112e-17
489 1 47.4856 88.63 -5.55112e-17
490 1 94.3929 50.7534 -5.55112e-17
491 1 142.284 97.7727 -5.55112e-17
492 2 110.415 139.632 -5.55112e-17
493 1 209.039 187.086 -5.55112e-17
494 2 42.9336 172.127 -5.55112e-17
495 1 111.084 107.722 -5.55112e-17
496 1 164.429 42.4077 -5.55112e-17
497 1 205.084 202.175 -5.55112e-17
498 2 213.608 186.226 -5.55112e-17
499 2 155.366 60.6683 -5.55112e-17
500 2 216.738 94.0547 -5.55112e-17
501 2 116.61 206.127 -5.55112e-17
502 2 73.6724 93.913 -5.55112e-17
503 2 4.04889 145.007 -5.55112e-17
504 2 161.26 148.873 -5.55112e-17
505 2 203.925 116.52 -5.55112e-17
506 1 84.5901 106.71 -5.55112e-17
507 2 205.908 199.539 -5.55112e-17
508 1 71.4001 188.896 -5.55112e-17
509 1 12.5402 51.9517 -5.55112e-17
510 1 18.2091 64.6925 -5.55112e-17
511 2 178.361 109.345 -5.55112e-17
512 1 135.762 30.5578 -5.55112e-17
513 2 96.2949 9.93066 -5.55112e-17
514 2 126.51 25.8753 -5.55112e-17
515 1 179.698 77.8304 -5.55112e-17
516 2 22.5997 27.036 -5.55112e-17
517 1 31.1072 134.863 -5.55112e-17
518 2 154.362 91.8913 -5.55112e-17
519 1 208.474 10.9442 -5.55112e-17
520 2 196.495 115.669 -5.55112e-17
521 2 194.137 185.026 -5.55112e-17
522 1 160.316 54.6575 -5.55112e-17
523 1 140.701 10.7955 -5.55112e-17
524 2 112.156 159.931 -5.55112e-17
525 2 186.704 113.65 -5.55112e-17
526 2 193.842 175.399 -5.55112e-17
527 1 166.846 216.832 -5.55112e-17
528 1 196.56 159.187 -5.55112e-17
529 2 119.044 198.075 -5.55112e-17
530 2 175.682 22.2832 -5.55112e-17
531 2 18.8372 39.4669 -5.55112e-17
532 1 60.5266 68.8409 -5.55112e-17
533 2 9.37806 92.1518 -5.55112e-17
534 1 116.197 106 -5.55112e-17
535 1 144.076 185.681 -5.55112e-17
536 2 81.6183 132.008 -5.55112e-17
537 1 56.8532 207.954 -5.55112e-17
538 1 136.774 206.272 -5.55112e-17
539 2 65.0066 210.211 -5.55112e-17
540 1 130.93 35.4228 -5.55112e-17
541 1 26.1424 45.0281 -5.55112e-17
542 1 93.3978 4.05355 -5.55112e-17
543 2 174.263 38.0416 -5.55112e-17
544 1 23.5638 0.527637 -5.55112e-17
545 1 37.9616 9.94423 -5.55112e-17
546 2 90.3993 154.712 -5.55112e-17
547 1 91.8765 8.8724 -5.55112e-17
548 1 87.2128 202.12 -5.55112e-17
549 2 124.229 191.723 -5.55112e-17
550 2 115.234 71.8319 -5.55112e-17
551 2 141.565 95.259 -5.55112e-17
552 1 21.403 51.6336 -5.55112e-17
553 2 18.2955 100.519 -5.55112e-17
554 2 169.63 171.425 -5.55112e-17
555 2 136.907 97.7598 -5.55112e-17
556 1 140.528 146.173 -5.55112e-17
557 1 57.9753 1.20283 -5.55112e-17
558 1 114.036 57.1468 -5.55112e-17
559 2 207.282 85.1536 -5.55112e-17
560 2 85.7402 63.0928 -5.55112e-17
561 2 163.751 123.293 -5.55112e-17
562 2 210.178 127.055 -5.55112e-17
563 1 118.44 127.824 -5.55112e-17
564 2 75.2303 192.105 -5.55112e-17
565 2 62.0267 34.1883 -5.55112e-17
566 2 142.173 44.688 -5.55112e-17
567 1 184.62 34.8744 -5.55112e-17
568 1 79.1219 25.028 -5.55112e-17
569 2 105.244 10.995 -5.55112e-17
570 2 84.2254 90.1149 -5.55112e-17
571 2 100.875 32.9459 -5.55112e-17
572 1 100.158 19.3427 -5.55112e-17
573 2 121.17 206.915 -5.55112e-17
574 2 153.27 186.912 -5.55112e-17
575 1 210.661 17.2824 -5.55112e-17
576 1 86.5007 206.141 -5.55112e-17
577 1 169.78 22.1149 -5.55112e-17
578 1 23.7175 128.726 -5.55112e-17
579 2 197.577 69.9426 -5.55112e-17
580 1 143.419 29.4453 -5.55112e-17
581 1 109.595 150.611 -5.55112e-17
582 2 112.016 14.781 -5.55112e-17
583 2 106.481 83.442 -5.55112e-17
584 2 206.946 58.05 -5.55112e-17
585 1 106.943 12.8417 -5.55112e-17
586 1 114.044 124.422 -5.55112e-17
587 1 16.5131 197.755 -5.55112e-17
588 2 75.7905 64.4746 -5.55112e-17
589 1 194.279 196.312 -5.55112e-17
590 2 103.257 126.819 -5.55112e-17
591 2 104.58 53.4585 -5.55112e-17
592 1 209.067 215.481 -5.55112e-17
593 1 187.388 13.5975 -5.55112e-17
594 1 162.874 92.5277 -5.55112e-17
595 1 8.35483 135.001 -5.55112e-17
596 2 100.274 61.2999 -5.55112e-17
597 2 146.63 100.519 -5.55112e-17
598 2 95.5879 112.65 -5.55112e-17
599 2 21.0245 135.694 -5.55112e-17
600 2 36.7272 76.2429 -5.55112e-17
601 1 63.1885 147.019 -5.55112e-17
602 1 57.1558 39.3077 -5.55112e-17
603 2 101.278 36.0996 -5.55112e-17
604 1 144.179 207.017 -5.55112e-17
605 2 13.0679 208.674 -5.55112e-17
606 2 121.703 124.61 -5.55112e-17
607 2 202.029 134.355 -5.55112e-17
608 2 95.6106 128.564 -5.55112e-17
609 1 110.791 92.7521 -5.55112e-17
610 2 199.094 61.8471 -5.55112e-17
611 1 30.0032 120.458 -5.55112e-17
612 1 169.274 10.4846 -5.55112e-17
613 2 174.62 177.962 -5.55112e-17
614 1 23.3218 11.7888 -5.55112e-17
615 1 124.594 65.0009 -5.55112e-17
616 2 184.877 4.28247 -5.55112e-17
617 1 13.1343 186.397 -5.55112e-17
618 1 204.769 92.5835 -5.55112e-17
619 1 74.9291 168.944 -5.55112e-17
620 2 87.1429 94.59 -5.55112e-17
621 2 117.027 49.2533 -5.55112e-17
622 2 58.0235 190.174 -5.55112e-17
623 2 32.2778 1.48273 -5.55112e-17
624 1 19.9404 60.6447 -5.55112e-17
625 2 198.34 66.9535 -5.55112e-17
626 1 164.186 9.69021 -5.55112e-17
627 2 31.9591 51.8348 -5.55112e-17
628 1 68.8981 153.405 -5.55112e-17
629 1 129.651 202.807 -5.55112e-17
630 2 170.754 42.4332 -5.55112e-17
631 2 95.6506 59.0629 -5.55112e-17
632 2 191.042 18.0874 -5.55112e-17
633 2 148.236 90.8659 -5.55112e-17
634 2 68.3118 185.028 -5.55112e-17
635 2 105.175 136.046 -5.55112e-17
636 1 17.9679 83.0783 -5.55112e-17
637 1 166.966 51.6799 -5.55112e-17
638 1 167.53 126.807 -5.55112e-17
639 2 202.433 182.98 -5.55112e-17
640 2 60.9422 40.1865 -5.55112e-17
641 1 62.0161 12.3201 -5.55112e-17
642 2 71.5718 21.133 -5.55112e-17
643 1 23.591 162.513 -5.55112e-17
644 2 99.3261 211.945 -5.55112e-17
645 2 11.1505 168.376 -5.55112e-17
646 1 214.614 114.705 -5.55112e-17
647 2 34.9042 126.671 -5.55112e-17
648 2 171.32 20.2175 -5.55112e-17
649 1 36.3873 78.7113 -5.55112e-17
650 1 184.204 123.516 -5.55112e-17
651 1 183.976 23.0738 -5.55112e-17
652 2 155.704 107.796 -5.55112e-17
653 2 85.7369 79.8657 -5.55112e-17
654 1 151.793 98.625 -5.55112e-17
655 1 59.7212 73.9799 -5.55112e-17
656 1 179.472 130.658 -5.55112e-17
657 1 68.3591 16.4462 -5.55112e-17
658 2 189.625 15.2181 -5.55112e-17
659 2 161.186 139.991 -5.55112e-17
660 1 181.738 177.288 -5.55112e-17
661 2 8.21348 38.448 -5.55112e-17
662 2 13.8711 171.881 -5.55112e-17
663 1 191.727 173.436 -5.55112e-17
664 1 116.572 62.1786 -5.55112e-17
665 1 202.621 99.5274 -5.55112e-17
666 1 128.237 148.253 -5.55112e-17
667 1 69.8005 58.2152 -5.55112e-17
668 1 193.456 39.1658 -5.55112e-17
669 1 55.4152 103.654 -5.55112e-17
670 2 72.7366 113.789 -5.55112e-17
671 1 65.5683 79.1066 -5.55112e-17
672 1 155.307 164.872 -5.55112e-17
673 2 131.883 178.541 -5.55112e-17
674 2 170.296 114.352 -5.55112e-17
675 2 55.3479 90.94 -5.55112e-17
676 1 86.6274 38.995 -5.55112e-17
677 2 192.687 43.296 -5.55112e-17
678 1 68.1025 137.989 -5.55112e-17
679 1 149.245 12.9527 -5.55112e-17
680 2 55.5632 100.834 -5.55112e-17
681 1 66.526 150.425 -5.55112e-17
682 1 147.784 83.4379 -5.55112e-17
683 2 39.1698 38.7501 -5.55112e-17
684 1 52.1671 194.557 -5.55112e-17
685 1 194.585 113.902 -5.55112e-17
686 1 52.0034 87.7914 -5.55112e-17
687 1 55.3471 168.042 -5.55112e-17
688 1 136.346 176.799 -5.55112e-17
689 2 137.357 46.6991 -5.55112e-17
690 1 53.2893 92.7887 -5.55112e-17
691 2 110.478 98.6318 -5.55112e-17
692 2 8.43498 208.069 -5.55112e-17
693 1 109.786 47.4837 -5.55112e-17
694 2 152.408 55.0634 -5.55112e-17
695 2 145.607 205.164 -5.55112e-17
696 2 7.61224 162.331 -5.55112e-17
697 1 102.331 41.4567 -5.55112e-17
698 2 170.34 34.3722 -5.55112e-17
699 1 138.152 154.062 -5.55112e-17
700 2 85.386 15.9685 -5.55112e-17
701 2 154.48 4.57871 -5.55112e-17
702 1 218.984 1.88235 -5.55112e-17
703 1 46.3064 190.793 -5.55112e-17
704 1 73.4286 15.7686 -5.55112e-17
705 1 2.35422 140.379 -5.55112e-17
706 1 180.792 212.179 -5.55112e-17
707 1 100.573 56.2526 -5.55112e-17
708 2 162.614 106.983 -5.55112e-17
709 1 148.38 35.3017 -5.55112e-17
710 2 200.144 54.7262 -5.55112e-17
711 2 52.8431 4.81656 -5.55112e-17
712 1 190.003 123.306 -5.55112e-17
713 1 218.931 176.151 -5.55112e-17
714 2 70.7402 63.7917 -5.55112e-17
715 2 32.7515 209.88 -5.55112e-17
716 1 32.4274 180.655 -5.55112e-17
717 1 141.637 3.79604 -5.55112e-17
718 2 109.518 142.765 -5.55112e-17
719 1 127.444 177.727 -5.55112e-17
720 2 130.035 155.065 -5.55112e-17
721 2 118.954 80.6684 -5.55112e-17
722 2 139.98 54.3836 -5.55112e-17
723 2 180.522 16.5455 -5.55112e-17
724 2 9.47495 107.502 -5.55112e-17
725 2 88.6576 87.2638 -5.55112e-17
726 2 101.813 38.8059 -5.55112e-17
727 2 73.4678 62.1497 -5.55112e-17
728 1 42.6825 32.5032 -5.55112e-17
729 2 196.573 139.774 -5.55112e-17
730 2 14.4328 106.544 -5.55112e-17
731 1 192.219 36.6873 -5.55112e-17
732 2 99.6461 161.075 -5.55112e-17
733 2 163.384 183.72 -5.55112e-17
734 2 182.225 185.182 -5.55112e-17
735 2 212.445 130.849 -5.55112e-17
736 1 144.434 56.9953 -5.55112e-17
737 2 48.0968 69.7999 -5.55112e-17
738 2 208.353 42.8255 -5.55112e-17
739 2 13.9434 191.274 -5.55112e-17
740 2 80.6285 144.016 -5.55112e-17
741 2 115.876 103.35 -5.55112e-17
742 1 138.636 48.8448 -5.55112e-17
743 2 96.0392 99.7802 -5.55112e-17
744 1 30.2653 172.986 -5.55112e-17
745 2 2.42678 78.9975 -5.55112e-17
746 1 96.7662 34.0487 -5.55112e-17
747 1 145.068 27.2697 -5.55112e-17
748 2 61.601 177.022 -5.55112e-17
749 1 126.17 133.466 -5.55112e-17
750 1 43.8756 211.515 -5.55112e-17
751 1 169.498 65.0618 -5.55112e-17
752 2 204.491 173.178 -5.55112e-17
753 1 54.4666 144.472 -5.55112e-17
754 2 95.1174 28.6795 -5.55112e-17
755 1 162.477 42.9824 -5.55112e-17
756 2 215.346 146.612 -5.55112e-17
757 1 122.027 18.7344 -5.55112e-17
758 2 204.902 142.539 -5.55112e-17
759 1 50.5673 70.6413 -5.55112e-17
760 1 66.9367 93.9278 -5.55112e-17
761 2 169.966 17.6531 -5.55112e-17
762 1 211.119 124.508 -5.55112e-17
763 2 107.673 178.2 -5.55112e-17
764 2 131.69 38.0071 -5.55112e-17
765 1 43.9873 169.442 -5.55112e-17
766 2 190.128 184.541 -5.55112e-17
767 2 34.4301 142.695 -5.55112e-17
768 2 90.7576 195.371 -5.55112e-17
769 2 41.9909 180.413 -5.55112e-17
770 1 129.733 0.958819 -5.55112e-17
771 1 204.878 138.938 -5.55112e-17
772 1 134.333 205.075 -5.55112e-17
773 2 92.4377 201.832 -5.55112e-17
774 1 86.2524 165.794 -5.55112e-17
775 1 8.65831 71.3247 -5.55112e-17
776 2 121.781 143.819 -5.55112e-17
777 2 2.19726 109.676 -5.55112e-17
778 1 106.546 180.733 -5.55112e-17
779 1 198.928 109.567 -5.55112e-17
780 2 212.082 208.031 -5.55112e-17
781 1 155.285 148.444 -5.55112e-17
782 2 153.137 126.275 -5.55112e-17
783 1 55.8425 95.7757 -5.55112e-17
784 2 217.762 207.863 -5.55112e-17
785 1 31.9755 83.4325 -5.55112e-17
786 1 175.076 214.108 -5.55112e-17
787 2 60.6752 187.012 -5.55112e-17
788 2 121.245 147.673 -5.55112e-17
789 2 88.4628 62.414 -5.55112e-17
790 2 25.8541 99.2308 -5.55112e-17
791 2 189.53 97.63 -5.55112e-17
792 1 123.044 112.418 -5.55112e-17
793 1 2.42954 73.5167 -5.55112e-17
794 2 3.6257 216.407 -5.55112e-17
795 2 207.508 172.417 -5.55112e-17
796 1 101.582 5.37629 -5.55112e-17
797 1 158.334 104.079 -5.55112e-17
798 1 66.8858 131.475 -5.55112e-17
799 2 5.77198 193.416 -5.55112e-17
800 1 154.928 27.3171 -5.55112e-17
801 2 70.3468 127.312 -5.55112e-17
802 1 154.035 141.859 -5.55112e-17
803 1 33.2046 10.6412 -5.55112e-17
804 1 208.327 153.896 -5.55112e-17
805 2 166.502 78.7293 -5.55112e-17
806 2 202.236 127.048 -5.55112e-17
807 2 122.918 130.289 -5.55112e-17
808 2 82.8358 150.645 -5.55112e-17
809 1 166.85 95.5078 -5.55112e-17
810 2 207.558 47.8614 -5.55112e-17
811 2 82.2678 199.972 -5.55112e-17
812 1 25.3549 207.894 -5.55112e-17
813 1 87.0961 105.892 -5.55112e-17
814 1 96.9436 162.149 -5.55112e-17
815 1 110.79 85.5488 -5.55112e-17
816 1 198.975 7.84856 -5.55112e-17
817 2 120.578 134.62 -5.55112e-17
818 2 55.0212 149.553 -5.55112e-17
819 2 18.5971 85.8551 -5.55112e-17
820 1 150.931 75.5201 -5.55112e-17
821 1 150.769 182.242 -5.55112e-17
822 2 175.755 2.18913 -5.55112e-17
823 1 107.473 90.2183 -5.55112e-17
824 1 23.9355 152.814 -5.55112e-17
825 1 75.7606 172.026 -5.55112e-17
826 2 185.129 44.8855 -5.55112e-17
827 2 58.6912 156.448 -5.55112e-17
828 1 129.567 185.074 -5.55112e-17
829 2 173.06 140.261 -5.55112e-17
830 1 59.867 30.1442 -5.55112e-17
831 2 206.726 1.5327 -5.55112e-17
832 2 161.349 207.258 -5.55112e-17
833 2 15.8267 187.223 -5.55112e-17
834 1 200.834 50.012 -5.55112e-17
835 1 161.326 35.2911 -5.55112e-17
836 1 94.2769 8.2895 -5.55112e-17
837 2 43.171 209.256 -5.55112e-17
838 2 194.341 141.969 -5.55112e-17
839 1 141.68 206.525 -5.55112e-17
840 2 181.458 193.243 -5.55112e-17
841 2 183.399 11.3149 -5.55112e-17
842 1 186.893 192.734 -5.55112e-17
843 1 89.3241 139.096 -5.55112e-17
844 2 143.03 54.8124 -5.55112e-17
845 1 145.845 114.978 -5.55112e-17
846 2 34.3695 26.7851 -5.55112e-17
847 1 4.20756 136.837 -5.55112e-17
848 2 118.988 69.3107 -5.55112e-17
849 1 100.499 193.193 -5.55112e-17
850 2 122.902 201.714 -5.55112e-17
851 2 148.746 125.383 -5.55112e-17
852 1 80.9843 187.302 -5.55112e-17
853 1 36.3123 128.822 -5.55112e-17
854 2 209.597 166.78 -5.55112e-17
855 2 201.586 7.54585 -5.55112e-17
856 1 25.5384 85.1828 -5.55112e-17