ITEM: TIMESTEP
0
ITEM: NUMBER OF ATOMS
7200
ITEM: BOX BOUNDS xy xz yz pp pp pp
0.0000000000000000e+00 2.1900000000000000e+02 0.0000000000000000e+00
0.0000000000000000e+00 2.1900000000000000e+02 0.0000000000000000e+00
-3.6499999999999999e-01 3.6499999999999999e-01 0.0000000000000000e+00
ITEM: ATOMS id type x y z
1 1 183.206 15.3983 -5.55112e-17
2 2 189.658 183.143 -5.55112e-17
3 2 145.15 189.639 -5.55112e-17
4 1 123.32 110.045 -5.55112e-17
5 1 99.3121 124.253 -5.55112e-17
6 1 103.516 25.9197 -5.55112e-17
7 2 157.826 126.472 -5.55112e-17
8 2 70.3578 24.8726 -5.55112e-17
9 1 20.7509 212.505 -5.55112e-17
10 2 56.8208 166.56 -5.55112e-17
11 2 210.79 99.6367 -5.55112e-17
12 1 32.0653 191.846 -5.55112e-17
13 2 188.476 55.834 -5.55112e-17
14 1 54.7646 181.703 -5.55112e-17
15 2 192.808 1.856 -5.55112e-17
16 2 215.721 86.8224 -5.55112e-17
17 1 67.8325 73.5488 -5.55112e-17
18 2 9.8324 173.186 -5.55112e-17
19 1 92.2208 129.066 -5.55112e-17
20 1 70.765 13.7943 -5.55112e-17
21 1 157.95 9.43656 -5.55112e-17
22 2 27.9039 209.691 -5.55112e-17
23 2 42.6759 209.317 -5.55112e-17
24 2 218.76 102.571 -5.55112e-17
25 2 14.4711 197.184 -5.55112e-17
26 2 147.903 27.6381 -5.55112e-17
27 1 216.596 162.495 -5.55112e-17
28 2 53.7632 155.573 -5.55112e-17
29 2 82.5107 4.37034 -5.55112e-17
30 2 131.99 43.8725 -5.55112e-17
31 2 157.11 85.0534 -5.55112e-17
32 1 41.3229 121.558 -5.55112e-17
33 2 146.217 88.4337 -5.55112e-17
34 2 11.7075 99.0664 -5.55112e-17
35 2 121.617 12.0499 -5.55112e-17
36 1 161.464 148.624 -5.55112e-17
37 1 133.402 185.379 -5.55112e-17
38 2 207.756 158.181 -5.55112e-17
39 1 9.25072 38.5262 -5.55112e-17
40 2 197.235 71.0563 -5.55112e-17
41 1 195.886 73.4154 -5.55112e-17
42 1 54.5174 59.3012 -5.55112e-17
43 1 210.812 131.525 -5.55112e-17
44 1 152.506 188.344 -5.55112e-17
45 2 158.568 61.8133 -5.55112e-17
46 1 124.954 193.317 -5.55112e-17
47 2 86.4967 72.7006 -5.55112e-17
48 2 150.247 127.033 -5.55112e-17
49 1 193.733 201.314 -5.55112e-17
50 2 24.1531 48.264 -5.55112e-17
51 1 186.515 5.19993 -5.55112e-17
52 1 113.881 49.9795 -5.55112e-17
53 2 54.7139 190.731 -5.55112e-17
54 1 40.9742 14.3182 -5.55112e-17
55 2 52.755 142.285 -5.55112e-17
56 1 31.0434 132.916 -5.55112e-17
57 2 58.5636 134.182 -5.55112e-17
58 1 188.535 46.6782 -5.55112e-17
59 1 158.358 87.3488 -5.55112e-17
60 2 205.974 58.5872 -5.55112e-17
61 1 167.035 158.117 -5.55112e-17
62 1 108.735 112.484 -5.55112e-17
63 2 108.302 38.1335 -5.55112e-17
64 1 29.2135 21.1767 -5.55112e-17
65 2 156.513 150.896 -5.55112e-17
66 2 12.5264 155.136 -5.55112e-17
67 2 182.888 108.631 -5.55112e-17
68 1 137.734 83.2319 -5.55112e-17
69 2 109.437 166.677 -5.55112e-17
70 1 142.059 98.2472 -5.55112e-17
71 1 197.854 145.78 -5.55112e-17
72 2 44.7008 157.998 -5.55112e-17
73 2 195.764 181.21 -5.55112e-17
74 2 116.813 62.1011 -5.55112e-17
75 1 13.7442 136.647 -5.55112e-17
76 2 138.574 206.552 -5.55112e-17
77 2 165.192 16.2745 -5.55112e-17
78 1 91.6862 211.18 -5.55112e-17
79 2 61.1705 75.2737 -5.55112e-17
80 1 52.2613 31.8037 -5.55112e-17
81 1 181.403 213.671 -5.55112e-17
82 1 175.476 41.3663 -5.55112e-17
83 1 72.8935 90.069 -5.55112e-17
84 2 141.363 179.609 -5.55112e-17
85 2 150.483 143.891 -5.55112e-17
86 2 50.8821 68.3763 -5.55112e-17
87 2 35.6218 84.8477 -5.55112e-17
88 1 78.2008 158.988 -5.55112e-17
89 2 200.612 105.85 -5.55112e-17
90 2 125.685 35.4598 -5.55112e-17
91 2 10.6596 182.438 -5.55112e-17
92 1 24.6569 214.297 -5.55112e-17
93 2 110.346 152.607 -5.55112e-17
94 2 114.299 143.86 -5.55112e-17
95 1 212.074 51.409 -5.55112e-17
96 2 30.6244 60.8891 -5.55112e-17
97 2 4.15025 211.86 -5.55112e-17
98 2 35.1514 185.026 -5.55112e-17
99 1 107.439 6.62842 -5.55112e-17
100 2 157.839 66.1983 -5.55112e-17
101 1 180.334 109.488 -5.55112e-17
102 1 66.9745 163.868 -5.55112e-17
103 2 205.805 99.2169 -5.55112e-17
104 2 101.405 72.1927 -5.55112e-17
105 1 159.549 54.666 -5.55112e-17
106 1 183.62 53.7696 -5.55112e-17
107 1 216.649 104.057 -5.55112e-17
108 1 69.8816 209.302 -5.55112e-17
109 2 218.95 39.3407 -5.55112e-17
110 2 143.495 29.124 -5.55112e-17
111 1 55.0188 92.8127 -5.55112e-17
112 2 5.19258 48.2646 -5.55112e-17
113 1 133.955 10.7465 -5.55112e-17
114 1 90.6441 79.3092 -5.55112e-17
115 2 40.1365 75.9954 -5.55112e-17
116 2 184.745 17.4687 -5.55112e-17
117 1 155.739 115.502 -5.55112e-17
118 1 84.9443 91.6949 -5.55112e-17
119 2 99.1904 137.998 -5.55112e-17
120 2 200.981 60.0872 -5.55112e-17
121 1 205.102 138.819 -5.55112e-17
122 2 143.646 129.68 -5.55112e-17
123 2 5.10809 132.872 -5.55112e-17
124 1 163.769 204.761 -5.55112e-17
125 1 85.6858 192.248 -5.55112e-17
126 2 93.4479 83.5397 -5.55112e-17
127 2 209.193 110.768 -5.55112e-17
128 1 122.044 105.313 -5.55112e-17
129 1 144.786 194.954 -5.55112e-17
130 2 117.689 54.225 -5.55112e-17
131 1 126.001 49.3974 -5.55112e-17
132 1 138.38 21.4444 -5.55112e-17
133 1 179.363 101.823 -5.55112e-17
134 1 79.1492 189.746 -5.55112e-17
135 2 178.191 65.8896 -5.55112e-17
136 1 186.14 120.869 -5.55112e-17
137 1 57.7805 14.367 -5.55112e-17
138 2 150.525 156.885 -5.55112e-17
139 1 131.801 11.5259 -5.55112e-17
140 1 147.366 208.803 -5.55112e-17
141 1 51.4682 71.0732 -5.55112e-17
142 1 213.474 195.829 -5.55112e-17
143 1 26.5598 26.0884 -5.55112e-17
144 1 49.1768 98.6417 -5.55112e-17
145 2 192.899 79.5174 -5.55112e-17
146 1 161.017 136.025 -5.55112e-17
147 2 16.1773 134.228 -5.55112e-17
148 1 24.1262 133.279 -5.55112e-17
149 1 150.33 194.944 -5.55112e-17
150 2 64.9432 51.5038 -5.55112e-17
151 1 132.381 135.947 -5.55112e-17
152 1 165.15 156.516 -5.55112e-17
153 2 120.355 130.267 -5.55112e-17
154 1 190.165 50.5418 -5.55112e-17
155 2 203.89 40.4539 -5.55112e-17
156 2 104.358 189.283 -5.55112e-17
157 2 170.288 28.9956 -5.55112e-17
158 2 28.2151 7.10712 -5.55112e-17
159 2 11.5768 159.705 -5.55112e-17
160 2 115.869 48.1128 -5.55112e-17
161 2 130.504 138.313 -5.55112e-17
162 1 15.546 71.9149 -5.55112e-17
163 1 180.506 41.8968 -5.55112e-17
164 2 109.092 128.766 -5.55112e-17
165 1 49.2493 72.7754 -5.55112e-17
166 2 7.86422 203.773 -5.55112e-17
167 1 106.971 165.89 -5.55112e-17
168 1 211.479 102.142 -5.55112e-17
169 2 102.398 203.386 -5.55112e-17
170 1 66.2714 205.746 -5.55112e-17
171 1 137.931 92.6697 -5.55112e-17
172 1 198.877 201.072 -5.55112e-17
173 1 41.2692 201.492 -5.55112e-17
174 2 38.1924 173.283 -5.55112e-17
175 2 50.1026 203.923 -5.55112e-17
176 1 121.994 154.519 -5.55112e-17
177 2 107.377 11.9242 -5.55112e-17
178 1 25.4859 7.0852 -5.55112e-17
179 2 110.565 192.75 -5.55112e-17
180 1 47.4339 74.2843 -5.55112e-17
181 1 16.4491 118.907 -5.55112e-17
182 1 111.251 95.9036 -5.55112e-17
183 1 64.6591 167.864 -5.55112e-17
184 2 154.512 24.9221 -5.55112e-17
185 2 189.865 77.8897 -5.55112e-17
186 2 74.2121 205.474 -5.55112e-17
187 2 165.757 202.713 -5.55112e-17
188 2 60.0476 33.409 -5.55112e-17
189 1 163.776 55.2989 -5.55112e-17
190 1 195.396 51.0534 -5.55112e-17
191 2 33.2129 104.234 -5.55112e-17
192 2 90.9462 60.3003 -5.55112e-17
193 1 109.153 163.895 -5.55112e-17
194 1 26.6596 4.96522 -5.55112e-17
195 2 58.3494 120.472 -5.55112e-17
196 1 218.786 0.195691 -5.55112e-17
197 2 117.575 40.4553 -5.55112e-17
198 2 207.12 28.5289 -5.55112e-17
199 2 98.3942 171.995 -5.55112e-17
200 2 99.0692 29.9306 -5.55112e-17
201 2 101.833 125.045 -5.55112e-17
202 1 48.0088 30.9455 -5.55112e-17
203 1 21.8128 55.2229 -5.55112e-17
204 2 42.7265 81.272 -5.55112e-17
205 2 180.816 172.825 -5.55112e-17
206 2 172.698 133.943 -5.55112e-17
207 1 71.6661 188.418 -5.55112e-17
208 2 134.656 58.945 -5.55112e-17
209 2 32.2795 142.377 -5.55112e-17
210 1 178.248 109.975 -5.55112e-17
211 1 209.058 35.4816 -5.55112e-17
212 1 207.805 84.7738 -5.55112e-17
213 1 128.465 124.195 -5.55112e-17
214 2 12.5443 11.0542 -5.55112e-17
215 1 3.33061 140.049 -5.55112e-17
216 1 48.9563 47.3741 -5.55112e-17
217 1 163.502 61.7578 -5.55112e-17
218 2 204.479 120.957 -5.55112e-17
219 2 136.647 190.435 -5.55112e-17
220 1 119.312 215.788 -5.55112e-17
221 2 82.2535 7.46278 -5.55112e-17
222 1 148.75 155.147 -5.55112e-17
223 1 48.5177 116.893 -5.55112e-17
224 2 145.479 72.5116 -5.55112e-17
225 2 173.062 164.424 -5.55112e-17
226 1 196.652 12.1048 -5.55112e-17
227 2 203.221 215.894 -5.55112e-17
228 2 113.637 43.7039 -5.55112e-17
229 1 40.5724 16.9395 -5.55112e-17
230 1 5.30285 57.3663 -5.55112e-17
231 2 136.703 161.155 -5.55112e-17
232 1 15.8936 204.585 -5.55112e-17
233 2 81.6184 196.359 -5.55112e-17
234 1 0.880882 59.739 -5.55112e-17
235 1 150.744 107.166 -5.55112e-17
236 2 152.317 52.2292 -5.55112e-17
237 2 100.021 201.703 -5.55112e-17
238 2 94.701 139.095 -5.55112e-17
239 1 37.2582 214.295 -5.55112e-17
240 1 130.765 90.868 -5.55112e-17
241 2 3.9519 124.293 -5.55112e-17
242 1 187.546 29.2225 -5.55112e-17
243 2 215.597 129.979 -5.55112e-17
244 2 34.3415 190.304 -5.55112e-17
245 1 172.585 24.1587 -5.55112e-17
246 2 90.9389 81.8978 -5.55112e-17
247 2 197.458 148.201 -5.55112e-17
248 1 39.1956 26.2682 -5.55112e-17
249 1 132.144 108.415 -5.55112e-17
250 1 132.999 27.2233 -5.55112e-17
251 2 102.245 43.559 -5.55112e-17
252 1 111.228 155.279 -5.55112e-17
253 2 95.603 99.985 -5.55112e-17
254 2 179.535 206.928 -5.55112e-17
255 2 125.852 46.6805 -5.55112e-17
256 1 2.1842 180.282 -5.55112e-17
257 2 30.6446 194.107 -5.55112e-17
258 1 210.693 80.8754 -5.55112e-17
259 2 162.134 143.087 -5.55112e-17
260 1 52.3533 191.911 -5.55112e-17
261 2 143.363 177.082 -5.55112e-17
262 2 185.969 105.02 -5.55112e-17
263 2 95.224 170.979 -5.55112e-17
264 1 199.352 36.7979 -5.55112e-17
265 1 147.68 187.99 -5.55112e-17
266 1 92.2685 194.181 -5.55112e-17
267 2 107.714 14.8753 -5.55112e-17
268 1 0.499599 48.677 -5.55112e-17
269 2 10.3838 113.193 -5.55112e-17
270 2 177.757 149.154 -5.55112e-17
271 2 188.03 93.6849 -5.55112e-17
272 1 58.5291 26.0075 -5.55112e-17
273 1 71.3089 82.1972 -5.55112e-17
274 1 31.7834 189.587 -5.55112e-17
275 1 147.291 110.928 -5.55112e-17
276 1 203.979 73.609 -5.55112e-17
277 1 97.9363 35.6901 -5.55112e-17
278 2 59.855 145.435 -5.55112e-17
279 2 160.882 87.4824 -5.55112e-17
280 1 117.532 214.524 -5.55112e-17
281 2 166.393 173.347 -5.55112e-17
282 2 77.1687 123.636 -5.55112e-17
283 2 218.086 150.947 -5.55112e-17
284 1 126.562 113.603 -5.55112e-17
285 1 74.0434 164.59 -5.55112e-17
286 2 29.7701 180.263 -5.55112e-17
287 2 97.7113 103.112 -5.55112e-17
288 1 107.963 122.173 -5.55112e-17
289 2 188.412 52.615 -5.55112e-17
290 1 93.5499 22.8915 -5.55112e-17
291 2 97.9745 188.762 -5.55112e-17
292 1 75.5312 128.521 -5.55112e-17
293 1 154.477 159.098 -5.55112e-17
294 1 29.3615 177.68 -5.55112e-17
295 2 45.6634 146.777 -5.55112e-17
296 1 191.431 169.469 -5.55112e-17
297 1 2.85542 18.5335 -5.55112e-17
298 2 29.8439 140.828 -5.55112e-17
299 1 165.718 54.4084 -5.55112e-17
300 2 190.896 196.461 -5.55112e-17
301 2 171.745 20.8332 -5.55112e-17
302 2 164.341 89.9246 -5.55112e-17
303 1 1.53105 151.917 -5.55112e-17
304 1 124.869 105.833 -5.55112e-17
305 1 93.239 176.492 -5.55112e-17
306 2 81.2124 19.6162 -5.55112e-17
307 2 155.753 166.99 -5.55112e-17
308 2 140.854 22.0209 -5.55112e-17
309 1 71.3902 71.0555 -5.55112e-17
310 1 186.999 188.642 -5.55112e-17
311 1 151.701 109.818 -5.55112e-17
312 2 133.586 13.3253 -5.55112e-17
313 2 157.18 17.3098 -5.55112e-17
314 1 195.482 61.0077 -5.55112e-17
315 2 59.7283 102.208 -5.55112e-17
316 1 93.7252 35.9616 -5.55112e-17
317 1 133.663 176.575 -5.55112e-17
318 1 217.037 135.452 -5.55112e-17
319 2 73.0626 198.623 -5.55112e-17
320 1 214.85 47.9397 -5.55112e-17
321 1 54.2129 87.6367 -5.55112e-17
322 1 50.8078 148.695 -5.55112e-17
323 2 19.487 138.534 -5.55112e-17
324 2 16.776 96.1153 -5.55112e-17
325 2 216.78 14.158 -5.55112e-17
326 1 184.978 3.17952 -5.55112e-17
327 1 34.0059 46.2642 -5.55112e-17
328 2 23.333 197.574 -5.55112e-17
329 2 24.5711 82.6723 -5.55112e-17
330 2 149.349 37.4243 -5.55112e-17
331 2 188.536 68.072 -5.55112e-17
332 2 122.029 114.586 -5.55112e-17
333 2 27.2237 151.56 -5.55112e-17
334 2 216.842 18.5079 -5.55112e-17
335 1 167.347 213.502 -5.55112e-17
336 2 27.1132 142.449 -5.55112e-17
337 2 40.859 11.2453 -5.55112e-17
338 1 208.693 95.0593 -5.55112e-17
339 2 14.2252 152.42 -5.55112e-17
340 2 177.188 216.228 -5.55112e-17
341 2 103.204 67.0186 -5.55112e-17
342 2 174.443 180.002 -5.55112e-17
343 2 175.959 7.4015 -5.55112e-17
344 1 86.9077 108.694 -5.55112e-17
345 2 30.863 213.568 -5.55112e-17
346 2 76.0593 70.901 -5.55112e-17
347 1 148.781 99.5676 -5.55112e-17
348 1 181.23 6.24191 -5.55112e-17
349 2 172.558 70.3635 -5.55112e-17
350 2 76.892 179.208 -5.55112e-17
351 1 170.5 135.253 -5.55112e-17
352 1 212.175 163.542 -5.55112e-17
353 2 141.353 131.758 -5.55112e-17
354 2 191.526 178.169 -5.55112e-17
355 1 215.072 157.19 -5.55112e-17
356 2 113.279 217.786 -5.55112e-17
357 1 127.359 193.146 -5.55112e-17
358 1 77.6598 23.8585 -5.55112e-17
359 1 34.5296 144.183 -5.55112e-17
360 1 60.224 13.685 -5.55112e-17
361 2 200.979 65.6973 -5.55112e-17
362 2 173.169 95.1873 -5.55112e-17
363 1 78.2234 214.982 -5.55112e-17
364 2 217.863 46.5788 -5.55112e-17
365 1 5.04389 164.631 -5.55112e-17
366 1 83.7079 172.549 -5.55112e-17
367 1 168.514 103.48 -5.55112e-17
368 1 20.2105 164.76 -5.55112e-17
369 2 81.5083 142.755 -5.55112e-17
370 1 7.40386 133.937 -5.55112e-17
371 2 71.207 109.637 -5.55112e-17
372 1 86.9216 6.51189 -5.55112e-17
373 2 115.118 204.637 -5.55112e-17
374 2 176.709 102.417 -5.55112e-17
375 1 134.786 25.1849 -5.55112e-17
376 1 121.766 147.178 -5.55112e-17
377 2 95.8371 70.4775 -5.55112e-17
378 2 215.839 106.509 -5.55112e-17
379 2 169.258 186.188 -5.55112e-17
380 1 198.992 32.6652 -5.55112e-17
381 1 171.575 67.654 -5.55112e-17
382 1 121.428 27.011 -5.55112e-17
383 1 111.277 88.9541 -5.55112e-17
384 2 56.7905 100.938 -5.55112e-17
385 1 59.1934 143.005 -5.55112e-17
386 2 184.219 159.235 -5.55112e-17
387 1 31.2276 106.045 -5.55112e-17
388 1 143.315 164.402 -5.55112e-17
389 2 216.613 120.609 -5.55112e-17
390 1 109.751 68.4993 -5.55112e-17
391 1 202.582 218.616 -5.55112e-17
392 2 3.00912 98.6219 -5.55112e-17
393 2 183.536 171.274 -5.55112e-17
394 1 35.0542 207.178 -5.55112e-17
395 1 19.0935 214.625 -5.55112e-17
396 2 76.8093 86.3956 -5.55112e-17
397 1 66.3329 36.1375 -5.55112e-17
398 2 163.629 109.945 -5.55112e-17
399 2 197.618 105.897 -5.55112e-17
400 2 121.411 72.0143 -5.55112e-17
401 2 86.2963 185.863 -5.55112e-17
402 1 83.8936 41.8462 -5.55112e-17
403 1 61.1409 107.699 -5.55112e-17
404 2 117.39 8.699 -5.55112e-17
405 1 60.1563 192.338 -5.55112e-17
406 2 218.853 94.6119 -5.55112e-17
407 1 124.739 78.8076 -5.55112e-17
408 1 128.835 28.4901 -5.55112e-17
409 2 215.151 115.357 -5.55112e-17
410 2 70.9234 158.699 -5.55112e-17
411 1 136.969 97.2492 -5.55112e-17
412 1 165.5 6.11786 -5.55112e-17
413 1 30.404 90.9821 -5.55112e-17
414 2 192.513 203.785 -5.55112e-17
415 1 100.931 122.291 -5.55112e-17
416 1 173.896 55.2296 -5.55112e-17
417 2 106.193 127.701 -5.55112e-17
418 2 34.238 179.525 -5.55112e-17
419 2 196.166 91.8924 -5.55112e-17
420 2 110.528 50.4157 -5.55112e-17
421 1 72.141 29.961 -5.55112e-17
422 1 35.8766 61.8832 -5.55112e-17
423 2 114.361 123.694 -5.55112e-17
424 2 39.1747 23.7036 -5.55112e-17
425 2 120.015 148.847 -5.55112e-17
426 1 183.306 95.0234 -5.55112e-17
427 2 73.1291 57.736 -5.55112e-17
428 1 28.9138 175.143 -5.55112e-17
429 2 132.691 147.933 -5.55112e-17
430 2 109.933 106.381 -5.55112e-17
431 1 13.5322 8.79893 -5.55112e-17
432 2 173.773 5.28037 -5.55112e-17
433 1 178.801 200.459 -5.55112e-17
434 1 16.8973 202.445 -5.55112e-17
435 1 150.81 86.66 -5.55112e-17
436 2 78.3845 198.944 -5.55112e-17
437 2 181.07 82.3693 -5.55112e-17
438 2 194.145 176.196 -5.55112e-17
439 2 90.8074 9.65921 -5.55112e-17
440 2 206.14 94.8192 -5.55112e-17
441 1 129.697 170.935 -5.55112e-17
442 1 39.9152 104.632 -5.55112e-17
443 2 80.329 79.943 -5.55112e-17
444 1 203.406 106.158 -5.55112e-17
445 1 176.542 139.811 -5.55112e-17
446 2 179.432 153.508 -5.55112e-17
447 2 38.5038 40.4196 -5.55112e-17
448 2 204.954 176.306 -5.55112e-17
449 1 45.4293 174.968 -5.55112e-17
450 1 10.9805 126.023 -5.55112e-17
451 1 50.2709 209.555 -5.55112e-17
452 2 208.276 60.4373 -5.55112e-17
453 1 215.494 150.339 -5.55112e-17
454 1 2.80207 69.0574 -5.55112e-17
455 2 75.5923 131.171 -5.55112e-17
456 1 83.5135 1.85231 -5.55112e-17
457 2 139.098 143.882 -5.55112e-17
458 2 155.534 137.466 -5.55112e-17
459 2 133.14 51.8588 -5.55112e-17
460 1 201.43 169.762 -5.55112e-17
461 1 109.555 124.136 -5.55112e-17
462 1 97.3141 183.964 -5.55112e-17
463 2 108.19 218.525 -5.55112e-17
464 2 13.8411 79.8485 -5.55112e-17
465 1 125.44 14.8641 -5.55112e-17
466 2 154.981 128.042 -5.55112e-17
467 2 64.7851 139.791 -5.55112e-17
468 2 124.41 125.38 -5.55112e-17
469 2 58.5824 71.3897 -5.55112e-17
470 2 207.469 154.968 -5.55112e-17
471 2 211.769 212.401 -5.55112e-17
472 2 110.765 36.1472 -5.55112e-17
473 2 197.632 216.03 -5.55112e-17
474 2 85.0661 146.052 -5.55112e-17
475 1 156.399 179.35 -5.55112e-17
476 2 177.654 32.2605 -5.55112e-17
477 1 207.919 0.285896 -5.55112e-17
478 1 45.6752 191.828 -5.55112e-17
479 2 218.816 198.351 -5.55112e-17
480 1 83.2588 57.842 -5.55112e-17
481 1 2.24566 210.155 -5.55112e-17
482 2 152.507 176.067 -5.55112e-17
483 1 128.887 210.016 -5.55112e-17
484 1 64.7012 137.292 -5.55112e-17
485 2 12.6751 174.041 -5.55112e-17
486 1 130.782 74.0323 -5.55112e-17
487 1 11.9734 202.339 -5.55112e-17
488 1 51.2463 84.2673 -5.55112e-17
489 1 68.5852 109.138 -5.55112e-17
490 1 163.926 73.9101 -5.55112e-17
491 1 162.53 76.2264 -5.55112e-17
492 2 210.044 16.2994 -5.55112e-17
493 1 92.7649 208.434 -5.55112e-17
494 2 77.2114 63.922 -5.55112e-17
495 1 151.206 93.6307 -5.55112e-17
496 1 49.9794 124.667 -5.55112e-17
497 1 137.124 109.968 -5.55112e-17
498 2 143.446 39.4469 -5.55112e-17
499 2 179.5 135.762 -5.55112e-17
500 2 59.3899 38.9248 -5.55112e-17
501 2 14.2898 139.443 -5.55112e-17
502 2 198.893 129.093 -5.55112e-17
503 2 57.2143 64.0918 -5.55112e-17
504 2 98.3815 48.2105 -5.55112e-17
505 2 110.097 208.067 -5.55112e-17
506 1 207.052 7.36035 -5.55112e-17
507 2 48.8513 182.552 -5.55112e-17
508 1 140.476 54.5652 -5.55112e-17
509 1 210.25 47.4371 -5.55112e-17
510 1 192.577 103.289 -5.55112e-17
511 2 109.505 179.667 -5.55112e-17
512 1 22.3474 43.7143 -5.55112e-17
513 2 91.8281 181.225 -5.55112e-17
514 2 15.2079 88.8245 -5.55112e-17
515 1 63.3224 98.1228 -5.55112e-17
516 2 99.1376 74.169 -5.55112e-17
517 1 31.8611 147.758 -5.55112e-17
518 2 10.6858 13.5853 -5.55112e-17
519 1 126.088 91.821 -5.55112e-17
520 2 210.747 88.4657 -5.55112e-17
521 2 129.403 42.5337 -5.55112e-17
522 1 187.114 9.26458 -5.55112e-17
523 1 127.973 99.7212 -5.55112e-17
524 2 174.459 19.611 -5.55112e-17
525 2 192.957 56.6165 -5.55112e-17
526 2 102.973 18.9792 -5.55112e-17
527 1 167.323 27.7884 -5.55112e-17
528 1 212.353 203.133 -5.55112e-17
529 2 113.922 173.245 -5.55112e-17
530 2 26.5318 88.502 -5.55112e-17
531 2 179.459 181.531 -5.55112e-17
532 1 80.2908 5.3265 -5.55112e-17
533 2 22.88 158.433 -5.55112e-17
534 1 22.8711 168.289 -5.55112e-17
535 1 170.621 209.219 -5.55112e-17
536 2 18.0868 170.049 -5.55112e-17
537 1 140.846 28.8051 -5.55112e-17
538 1 68.7313 157.338 -5.55112e-17
539 2 80.6447 163.412 -5.55112e-17
540 1 34.5321 182.135 -5.55112e-17
541 1 108.325 126.3 -5.55112e-17
542 1 59.0643 127.174 -5.55112e-17
543 2 118.175 171.21 -5.55112e-17
544 1 217.334 212.059 -5.55112e-17
545 1 174.412 72.4121 -5.55112e-17
546 2 187.411 11.712 -5.55112e-17
547 1 24.8397 80.0317 -5.55112e-17
548 1 29.2377 4.63793 -5.55112e-17
549 2 34.6058 152.505 -5.55112e-17
550 2 167.197 194.609 -5.55112e-17
551 2 36.1965 16.2138 -5.55112e-17
552 1 26.7182 56.7718 -5.55112e-17
553 2 209.192 193.082 -5.55112e-17
554 2 142.376 34.1671 -5.55112e-17
555 2 178.591 141.385 -5.55112e-17
556 1 178.268 213.69 -5.55112e-17
557 1 211.938 54.193 -5.55112e-17
558 1 57.3317 144.372 -5.55112e-17
559 2 105.736 94.4827 -5.55112e-17
560 2 58.7939 89.5552 -5.55112e-17
561 2 106.375 174.067 -5.55112e-17
562 2 100.779 63.4427 -5.55112e-17
563 1 73.6949 167.6 -5.55112e-17
564 2 109.419 78.1635 -5.55112e-17
565 2 25.8878 59.033 -5.55112e-17
566 2 63.4871 60.291 -5.55112e-17
567 1 89.3841 21.3155 -5.55112e-17
568 1 27.0983 68.4976 -5.55112e-17
569 2 142.181 194.66 -5.55112e-17
570 2 12.8515 20.9376 -5.55112e-17
571 2 5.48397 62.3235 -5.55112e-17
572 1 115.546 107.819 -5.55112e-17
573 2 40.0531 91.7705 -5.55112e-17
574 2 168.772 171.559 -5.55112e-17
575 1 195.754 208.249 -5.55112e-17
576 1 25.4746 75.7953 -5.55112e-17
577 1 125.938 74.6979 -5.55112e-17
578 1 184.577 116.443 -5.55112e-17
579 2 178.516 53.1502 -5.55112e-17
580 1 100.634 99.2573 -5.55112e-17
581 1 91.4719 145.368 -5.55112e-17
582 2 126.007 101.148 -5.55112e-17
583 2 104.371 83.3378 -5.55112e-17
584 2 107.264 149.478 -5.55112e-17
585 1 179.232 96.8044 -5.55112e-17
586 1 146.021 80.4479 -5.55112e-17
587 1 159.286 112.006 -5.55112e-17
588 2 66.2161 107.32 -5.55112e-17
589 1 211.044 59.5172 -5.55112e-17
590 2 185.828 60.1335 -5.55112e-17
591 2 179.676 18.7551 -5.55112e-17
592 1 205.031 128.575 -5.55112e-17
593 1 128.276 90.0239 -5.55112e-17
594 1 5.27564 70.4604 -5.55112e-17
595 1 28.366 62.8397 -5.55112e-17
596 2 108.205 66.7797 -5.55112e-17
597 2 64.7073 104.275 -5.55112e-17
598 2 136.93 88.0658 -5.55112e-17
599 2 96.6054 163.423 -5.55112e-17
600 2 52.4465 102.068 -5.55112e-17
601 1 146.452 108.225 -5.55112e-17
602 1 161.742 53.9619 -5.55112e-17
603 2 215.758 159.878 -5.55112e-17
604 1 48.4363 178.142 -5.55112e-17
605 2 140.609 100.725 -5.55112e-17
606 2 151.321 100.386 -5.55112e-17
607 2 47.6722 169.965 -5.55112e-17
608 2 127.091 30.6944 -5.55112e-17
609 1 79.3675 87.1704 -5.55112e-17
610 2 102.18 191.545 -5.55112e-17
611 1 0.886252 165.648 -5.55112e-17
612 1 207.231 117.223 -5.55112e-17
613 2 212.567 156.543 -5.55112e-17
614 1 202.892 30.7553 -5.55112e-17
615 1 152.629 105.195 -5.55112e-17
616 2 146.485 178.303 -5.55112e-17
617 1 168.939 3.31027 -5.55112e-17
618 1 135.864 213.623 -5.55112e-17
619 1 158.339 157.181 -5.55112e-17
620 2 44.8474 90.7138 -5.55112e-17
621 2 203.503 76.417 -5.55112e-17
622 2 144.923 151.786 -5.55112e-17
623 2 108.497 145.21 -5.55112e-17
624 1 118.21 178.296 -5.55112e-17
625 2 207.951 79.2926 -5.55112e-17
626 1 206.649 192.449 -5.55112e-17
627 2 199.103 193.592 -5.55112e-17
628 1 117.587 148.49 -5.55112e-17
629 1 31.8054 36.5318 -5.55112e-17
630 2 135.641 217.969 -5.55112e-17
631 2 145.117 115.61 -5.55112e-17
632 2 209.809 20.5557 -5.55112e-17
633 2 62.7944 129.909 -5.55112e-17
634 2 191.864 69.3435 -5.55112e-17
635 2 80.8389 70.0865 -5.55112e-17
636 1 87.9053 130.28 -5.55112e-17
637 1 216.283 152.995 -5.55112e-17
638 1 121.179 63.5917 -5.55112e-17
639 2 196.791 63.5868 -5.55112e-17
640 2 148.564 80.7286 -5.55112e-17
641 1 200.682 97.4497 -5.55112e-17
642 2 163.447 36.496 -5.55112e-17
643 1 159.567 59.4778 -5.55112e-17
644 2 139.765 157.959 -5.55112e-17
645 2 5.19896 75.6385 -5.55112e-17
646 1 171.434 141.862 -5.55112e-17
647 2 129.534 148.217 -5.55112e-17
648 2 190 213.352 -5.55112e-17
649 1 62.4115 140.746 -5.55112e-17
650 1 55.9229 154.056 -5.55112e-17
651 1 104.735 129.729 -5.55112e-17
652 2 8.4804 214.144 -5.55112e-17
653 2 195.743 43.8728 -5.55112e-17
654 1 207.829 165.13 -5.55112e-17
655 1 59.6942 48.3653 -5.55112e-17
656 1 199 12.1423 -5.55112e-17
657 1 125.54 120.357 -5.55112e-17
658 2 166.65 108.425 -5.55112e-17
659 2 100.94 135.294 -5.55112e-17
660 1 25.4992 11.5521 -5.55112e-17
661 2 14.6684 35.0909 -5.55112e-17
662 2 136.071 116.76 -5.55112e-17
663 1 164.211 112.75 -5.55112e-17
664 1 79.0026 134.898 -5.55112e-17
665 1 135.12 147.188 -5.55112e-17
666 1 200.597 181.326 -5.55112e-17
667 1 1.07005 116.48 -5.55112e-17
668 1 134.75 159.747 -5.55112e-17
669 1 107.686 159.101 -5.55112e-17
670 2 211.049 160.965 -5.55112e-17
671 1 4.20222 16.2346 -5.55112e-17
672 1 192.998 144.963 -5.55112e-17
673 2 48.8551 86.0011 -5.55112e-17
674 2 182.797 206.773 -5.55112e-17
675 2 148.616 2.94948 -5.55112e-17
676 1 184.578 151.474 -5.55112e-17
677 2 52.1413 54.573 -5.55112e-17
678 1 89.5979 107.74 -5.55112e-17
679 1 86.2735 61.2455 -5.55112e-17
680 2 67.491 10.1925 -5.55112e-17
681 1 5.48292 9.15313 -5.55112e-17
682 1 142.013 171.939 -5.55112e-17
683 2 94.6869 120.157 -5.55112e-17
684 1 23.0782 180.658 -5.55112e-17
685 1 83.9531 205.642 -5.55112e-17
686 1 142.364 157.101 -5.55112e-17
687 1 114.244 61.3862 -5.55112e-17
688 1 153.137 98.4295 -5.55112e-17
689 2 13.1467 142.243 -5.55112e-17
690 1 49.7205 129.046 -5.55112e-17
691 2 63.8834 115.287 -5.55112e-17
692 2 171.797 181.65 -5.55112e-17
693 1 162.746 97.422 -5.55112e-17
694 2 138.51 153.185 -5.55112e-17
695 2 183.534 32.0422 -5.55112e-17
696 2 27.6559 83.8122 -5.55112e-17
697 1 101.661 29.8674 -5.55112e-17
698 2 46.0224 16.7359 -5.55112e-17
699 1 55.6889 199.169 -5.55112e-17
700 2 17.9005 125.928 -5.55112e-17
701 2 30.5075 64.0736 -5.55112e-17
702 1 153.277 6.44078 -5.55112e-17
703 1 194.493 64.5469 -5.55112e-17
704 1 155.582 125.47 -5.55112e-17
705 1 42.169 119.148 -5.55112e-17
706 1 75.9113 160.634 -5.55112e-17
707 1 180.953 66.3233 -5.55112e-17
708 2 194.579 101.69 -5.55112e-17
709 1 54.5051 160.87 -5.55112e-17
710 2 94.3198 15.6272 -5.55112e-17
711 2 1.3798 141.797 -5.55112e-17
712 1 83.1663 213.343 -5.55112e-17
713 1 4.31787 152.763 -5.55112e-17
714 2 147.187 144.619 -5.55112e-17
715 2 134.38 87.125 -5.55112e-17
716 1 88.0629 59.7608 -5.55112e-17
717 1 18.3193 60.8029 -5.55112e-17
718 2 81.3239 97.1605 -5.55112e-17
719 1 64.3833 194.101 -5.55112e-17
720 2 54.4983 202.422 -5.55112e-17
721 2 45.7566 210.541 -5.55112e-17
722 2 62.0926 138.039 -5.55112e-17
723 2 15.0399 166.461 -5.55112e-17
724 2 202.499 103.49 -5.55112e-17
725 2 25.8999 51.1425 -5.55112e-17
726 2 175.356 126.142 -5.55112e-17
727 2 28.7574 107.065 -5.55112e-17
728 1 176.361 77.2245 -5.55112e-17
729 2 158.36 136.537 -5.55112e-17
730 2 176.933 92.2773 -5.55112e-17
731 1 11.6641 23.4341 -5.55112e-17
732 2 109.109 90.452 -5.55112e-17
733 2 148.076 138.702 -5.55112e-17
734 2 59.447 194.771 -5.55112e-17
735 2 148.566 73.1966 -5.55112e-17
736 1 176.861 181.521 -5.55112e-17
737 2 45.9774 42.6152 -5.55112e-17
738 2 71.3891 207.15 -5.55112e-17
739 2 185.857 127.866 -5.55112e-17
740 2 37.9561 117.044 -5.55112e-17
741 2 200.962 113.908 -5.55112e-17
742 1 74.5296 97.3394 -5.55112e-17
743 2 78.8013 74.1699 -5.55112e-17
744 1 146.533 50.1571 -5.55112e-17
745 2 12.8365 76.9727 -5.55112e-17
746 1 0.133023 121.143 -5.55112e-17
747 1 98.6994 161.64 -5.55112e-17
748 2 66.865 195.09 -5.55112e-17
749 1 212.755 166.235 -5.55112e-17
750 1 140.634 145.902 -5.55112e-17
751 1 143.826 89.5373 -5.55112e-17
752 2 189.692 164.733 -5.55112e-17
753 1 36.6434 180.315 -5.55112e-17
754 2 66.4654 80.2386 -5.55112e-17
755 1 8.40867 82.2535 -5.55112e-17
756 2 172.254 57.1955 -5.55112e-17
757 1 115.961 20.72 -5.55112e-17
758 2 96.137 23.4303 -5.55112e-17
759 1 95.3485 132.273 -5.55112e-17
760 1 167.715 64.8695 -5.55112e-17
761 2 213.784 100.621 -5.55112e-17
762 1 168.022 115.33 -5.55112e-17
763 2 5.72064 158.202 -5.55112e-17
764 2 49.6015 193.099 -5.55112e-17
765 1 20.7436 160.351 -5.55112e-17
766 2 103.548 46.4348 -5.55112e-17
767 2 206.015 148.87 -5.55112e-17
768 2 71.8197 60.8433 -5.55112e-17
769 2 187.608 97.1817 -5.55112e-17
770 1 132.921 18.1404 -5.55112e-17
771 1 64.0882 62.9532 -5.55112e-17
772 1 128.278 3.23456 -5.55112e-17
773 2 166.747 164.544 -5.55112e-17
774 1 88.4053 83.4349 -5.55112e-17
775 1 107.065 76.9976 -5.55112e-17
776 2 191.078 105.673 -5.55112e-17
777 2 43.0179 86.1782 -5.55112e-17
778 1 75.3673 15.9357 -5.55112e-17
779 1 46.9086 63.0509 -5.55112e-17
780 2 83.6057 48.7681 -5.55112e-17
781 1 25.3336 172.042 -5.55112e-17
782 2 120.868 169.267 -5.55112e-17
783 1 74.5194 60.1828 -5.55112e-17
784 2 96.212 113.607 -5.55112e-17
785 1 203.499 84.8041 -5.55112e-17
786 1 50.4204 216.699 -5.55112e-17
787 2 39.4661 208.728 -5.55112e-17
788 2 164.845 176.302 -5.55112e-17
789 2 17.8113 147.168 -5.55112e-17
790 2 76.2824 8.56013 -5.55112e-17
791 2 178.7 48.6419 -5.55112e-17
792 1 213.703 131.939 -5.55112e-17
793 1 97.4252 169.578 -5.55112e-17
794 2 209.723 7.37889 -5.55112e-17
795 2 11.9337 185.348 -5.55112e-17
796 1 68.9489 214.652 -5.55112e-17
797 1 50.4293 30.2342 -5.55112e-17
798 1 213.907 55.5379 -5.55112e-17
799 2 106.197 153.85 -5.55112e-17
800 1 52.7843 41.7541 -5.55112e-17
801 2 69.5188 83.8924 -5.55112e-17
802 1 90.161 216.508 -5.55112e-17
803 1 141.589 24.4155 -5.55112e-17
804 1 211.027 124.359 -5.55112e-17
805 2 185.051 110.835 -5.55112e-17
806 2 187.183 159.94 -5.55112e-17
807 2 209.368 30.6921 -5.55112e-17
808 2 78.0842 149.292 -5.55112e-17
809 1 175.589 65.4161 -5.55112e-17
810 2 23.4184 173.631 -5.55112e-17
811 2 185.578 51.7364 -5.55112e-17
812 1 121.931 188.454 -5.55112e-17
813 1 19.9859 84.9511 -5.55112e-17
814 1 2.41059 205.642 -5.55112e-17
815 1 144.226 32.0352 -5.55112e-17
816 1 207.509 50.999 -5.55112e-17
817 2 63.368 70.504 -5.55112e-17
818 2 29.7399 123.371 -5.55112e-17
819 2 210.929 67.767 -5.55112e-17
820 1 9.99698 59.9674 -5.55112e-17
821 1 64.4134 57.6902 -5.55112e-17
822 2 130.724 33.8727 -5.55112e-17
823 1 184.48 87.5372 -5.55112e-17
824 1 175.99 90.1116 -5.55112e-17
825 1 151.644 196.835 -5.55112e-17
826 2 178.24 81.7936 -5.55112e-17
827 2 105.394 24.3521 -5.55112e-17
828 1 52.6353 92.1998 -5.55112e-17
829 2 128.515 92.755 -5.55112e-17
830 1 3.07943 156.9 -5.55112e-17
831 2 183.147 1.40055 -5.55112e-17
832 2 23.9061 53.4378 -5.55112e-17
833 2 96.001 40.4157 -5.55112e-17
834 1 71.778 163.528 -5.55112e-17
835 1 182.694 144.539 -5.55112e-17
836 1 152.573 70.7724 -5.55112e-17
837 2 169.565 90.196 -5.55112e-17
838 2 90.7621 23.6356 -5.55112e-17
839 1 40.6101 30.6945 -5.55112e-17
840 2 14.6736 117.119 -5.55112e-17
841 2 201.634 11.9914 -5.55112e-17
842 1 175.391 150.332 -5.55112e-17
843 1 205.22 30.2775 -5.55112e-17
844 2 9.77333 25.1844 -5.55112e-17
845 1 46.7299 151.46 -5.55112e-17
846 2 129.941 212.49 -5.55112e-17
847 1 88.4457 142.165 -5.55112e-17
848 2 114.603 6.97454 -5.55112e-17
849 1 25.7851 32.9284 -5.55112e-17
850 2 60.2976 67.3145 -5.55112e-17
851 2 217.517 31.3734 -5.55112e-17
852 1 137.71 183.634 -5.55112e-17
853 1 188.556 104.86 -5.55112e-17
854 2 103.493 143.43 -5.55112e-17
855 2 166.797 117.99 -5.55112e-17
856 1 75.3433 155.359 -5.55112e-17
857 2 75.1849 120.837 -5.55112e-17