ITEM: TIMESTEP
0
ITEM: NUMBER OF ATOMS
7200
ITEM: BOX BOUNDS xy xz yz pp pp pp
0.0000000000000000e+00 2.1900000000000000e+02 0.0000000000000000e+00
0.0000000000000000e+00 2.1900000000000000e+02 0.0000000000000000e+00
-3.6499999999999999e-01 3.6499999999999999e-01 0.0000000000000000e+00
ITEM: ATOMS id type x y z
1 1 122.099 74.7081 -5.55112e-17
2 2 138.509 23.0734 -5.55112e-17
3 2 6.80096 153.457 -5.55112e-17
4 1 64.88 9.26928 -5.55112e-17
5 1 152.702 119.566 -5.55112e-17
6 1 210.344 70.8397 -5.55112e-17
7 2 134.26 174.838 -5.55112e-17
8 2 147.355 121.982 -5.55112e-17
9 1 63.2459 151.781 -5.55112e-17
10 2 12.3054 115.612 -5.55112e-17
11 2 143.655 192.583 -5.55112e-17
12 1 138.301 83.1706 -5.55112e-17
13 2 120.991 165.296 -5.55112e-17
14 1 30.2111 209.3 -5.55112e-17
15 2 177.241 165.213 -5.55112e-17
16 2 172.841 73.708 -5.55112e-17
17 1 12.998 179.375 -5.55112e-17
18 2 183.991 31.2059 -5.55112e-17
19 1 86.4198 104.719 -5.55112e-17
20 1 33.5003 162.21 -5.55112e-17
21 1 213.665 167.643 -5.55112e-17
22 2 167.477 20.7426 -5.55112e-17
23 2 151.797 191.937 -5.55112e-17
24 2 92.0517 108.802 -5.55112e-17
25 2 156.957 105.322 -5.55112e-17
26 2 124.769 102.687 -5.55112e-17
27 1 51.2279 141.673 -5.55112e-17
28 2 123.847 61.4002 -5.55112e-17
29 2 205.969 119.445 -5.55112e-17
30 2 160.652 62.8533 -5.55112e-17
31 2 203.854 59.2843 -5.55112e-17
32 1 174.471 147.636 -5.55112e-17
33 2 40.8949 71.8131 -5.55112e-17
34 2 140.813 69.3494 -5.55112e-17
35 2 115.861 102.781 -5.55112e-17
36 1 37.3744 9.95064 -5.55112e-17
37 1 168.548 76.3466 -5.55112e-17
38 2 89.2737 202.877 -5.55112e-17
39 1 131.018 3.3197 -5.55112e-17
40 2 15.7085 100.145 -5.55112e-17
41 1 21.2986 205.787 -5.55112e-17
42 1 61.8484 209.474 -5.55112e-17
43 1 6.40892 160.53 -5.55112e-17
44 1 116.24 199.893 -5.55112e-17
45 2 66.9931 184.701 -5.55112e-17
46 1 85.4452 153.347 -5.55112e-17
47 2 32.3623 78.8189 -5.55112e-17
48 2 160.06 165.296 -5.55112e-17
49 1 179.561 166.833 -5.55112e-17
50 2 160.142 140.931 -5.55112e-17
51 1 208.591 99.4906 -5.55112e-17
52 1 76.8283 24.6605 -5.55112e-17
53 2 110.772 163.001 -5.55112e-17
54 1 66.9963 45.2769 -5.55112e-17
55 2 129.606 168.529 -5.55112e-17
56 1 200.296 47.7437 -5.55112e-17
57 2 64.281 66.7427 -5.55112e-17
58 1 39.9657 9.54943 -5.55112e-17
59 1 72.3123 24.2955 -5.55112e-17
60 2 43.7974 147.099 -5.55112e-17
61 1 58.25 103.118 -5.55112e-17
62 1 6.50725 98.6027 -5.55112e-17
63 2 41.1388 163.635 -5.55112e-17
64 1 63.7535 130.901 -5.55112e-17
65 2 80.7288 114.277 -5.55112e-17
66 2 15.7335 30.7663 -5.55112e-17
67 2 126.91 64.5498 -5.55112e-17
68 1 44.5204 185.695 -5.55112e-17
69 2 82.1877 57.1205 -5.55112e-17
70 1 148.284 213.101 -5.55112e-17
71 1 68.23 34.2333 -5.55112e-17
72 2 151.451 79.856 -5.55112e-17
73 2 178.931 86.6159 -5.55112e-17
74 2 33.7971 58.4874 -5.55112e-17
75 1 24.6135 149.891 -5.55112e-17
76 2 174.786 139.59 -5.55112e-17
77 2 25.0832 36.8966 -5.55112e-17
78 1 155.9 182.991 -5.55112e-17
79 2 150.683 31.9739 -5.55112e-17
80 1 131.266 178.649 -5.55112e-17
81 1 36.3621 30.6487 -5.55112e-17
82 1 162.515 165.408 -5.55112e-17
83 1 20.7367 133.889 -5.55112e-17
84 2 84.9273 58.4775 -5.55112e-17
85 2 60.1609 32.7632 -5.55112e-17
86 2 173.784 81.3503 -5.55112e-17
87 2 131.411 171.23 -5.55112e-17
88 1 168.737 167.68 -5.55112e-17
89 2 58.1228 45.7621 -5.55112e-17
90 2 163.113 30.8347 -5.55112e-17
91 2 165.889 151.698 -5.55112e-17
92 1 202.057 65.8098 -5.55112e-17
93 2 30.489 76.9829 -5.55112e-17
94 2 44.1856 61.7937 -5.55112e-17
95 1 33.8551 80.6902 -5.55112e-17
96 2 199.036 122.356 -5.55112e-17
97 2 6.2339 128.419 -5.55112e-17
98 2 32.5074 119.764 -5.55112e-17
99 1 19.0151 78.463 -5.55112e-17
100 2 87.3251 121.539 -5.55112e-17
101 1 50.0187 105.029 -5.55112e-17
102 1 208.22 185.503 -5.55112e-17
103 2 167.823 170.337 -5.55112e-17
104 2 179.775 62.8104 -5.55112e-17
105 1 201.919 174.001 -5.55112e-17
106 1 185.872 20.0262 -5.55112e-17
107 1 187.79 28.6456 -5.55112e-17
108 1 22.0719 196.7 -5.55112e-17
109 2 90.3451 161.402 -5.55112e-17
110 2 160.222 34.5099 -5.55112e-17
111 1 178.352 212.566 -5.55112e-17
112 2 22.2205 0.253899 -5.55112e-17
113 1 43.245 156.33 -5.55112e-17
114 1 54.9297 179.699 -5.55112e-17
115 2 3.52331 6.00199 -5.55112e-17
116 2 13.8568 90.0404 -5.55112e-17
117 1 125.93 118.919 -5.55112e-17
118 1 215.809 54.4315 -5.55112e-17
119 2 78.5696 182.853 -5.55112e-17
120 2 86.6438 204.813 -5.55112e-17
121 1 183.988 194.429 -5.55112e-17
122 2 120.91 81.6664 -5.55112e-17
123 2 84.6989 18.7725 -5.55112e-17
124 1 116.913 189.902 -5.55112e-17
125 1 65.2029 190.409 -5.55112e-17
126 2 214.418 133.025 -5.55112e-17
127 2 197.241 3.53267 -5.55112e-17
128 1 66.7743 124.955 -5.55112e-17
129 1 118.336 55.2328 -5.55112e-17
130 2 13.0858 112.649 -5.55112e-17
131 1 88.0533 33.835 -5.55112e-17
132 1 84.1199 137.82 -5.55112e-17
133 1 15.795 4.02834 -5.55112e-17
134 1 185.531 77.6864 -5.55112e-17
135 2 9.81469 72.0037 -5.55112e-17
136 1 1.33284 132.978 -5.55112e-17
137 1 108.641 199.012 -5.55112e-17
138 2 175 79.0229 -5.55112e-17
139 1 105.98 144.054 -5.55112e-17
140 1 26.6823 197.423 -5.55112e-17
141 1 116.525 120.048 -5.55112e-17
142 1 3.65138 0.612103 -5.55112e-17
143 1 147.66 177.952 -5.55112e-17
144 1 83.087 36.2227 -5.55112e-17
145 2 210.739 8.05157 -5.55112e-17
146 1 175.86 89.7896 -5.55112e-17
147 2 134.597 183.275 -5.55112e-17
148 1 199.156 131.052 -5.55112e-17
149 1 10.1374 74.5688 -5.55112e-17
150 2 157.406 2.17102 -5.55112e-17
151 1 60.5887 7.04452 -5.55112e-17
152 1 52.6583 146.509 -5.55112e-17
153 2 18.7351 46.1696 -5.55112e-17
154 1 149.682 29.2542 -5.55112e-17
155 2 6.38796 116.27 -5.55112e-17
156 2 54.5362 204.871 -5.55112e-17
157 2 169.445 174.944 -5.55112e-17
158 2 14.6055 33.8322 -5.55112e-17
159 2 167.732 96.0069 -5.55112e-17
160 2 3.3003 75.1962 -5.55112e-17
161 2 36.1871 125.892 -5.55112e-17
162 1 131.027 120.158 -5.55112e-17
163 1 15.5732 147.185 -5.55112e-17
164 2 178.59 205.796 -5.55112e-17
165 1 211.914 143.753 -5.55112e-17
166 2 53.8713 199.526 -5.55112e-17
167 1 199.301 165.255 -5.55112e-17
168 1 114.523 130.291 -5.55112e-17
169 2 24.0898 70.1873 -5.55112e-17
170 1 156.091 107.697 -5.55112e-17
171 1 145.234 43.3046 -5.55112e-17
172 1 112.221 187.374 -5.55112e-17
173 1 187.054 188.133 -5.55112e-17
174 2 101.64 91.8463 -5.55112e-17
175 2 58.8095 38.4222 -5.55112e-17
176 1 63.6241 183.659 -5.55112e-17
177 2 180.941 15.7869 -5.55112e-17
178 1 18.6535 97.4685 -5.55112e-17
179 2 8.1214 22.7093 -5.55112e-17
180 1 157.816 89.4402 -5.55112e-17
181 1 36.1351 35.9425 -5.55112e-17
182 1 174.768 34.9512 -5.55112e-17
183 1 103.547 216.043 -5.55112e-17
184 2 41.1196 192.439 -5.55112e-17
185 2 4.03115 77.9442 -5.55112e-17
186 2 154.462 101.08 -5.55112e-17
187 2 208.577 166.213 -5.55112e-17
188 2 14.0552 204.443 -5.55112e-17
189 1 6.98533 53.8554 -5.55112e-17
190 1 20.3853 28.6137 -5.55112e-17
191 2 96.6844 93.5493 -5.55112e-17
192 2 49.1982 167.623 -5.55112e-17
193 1 119.286 52.9484 -5.55112e-17
194 1 7.59353 36.6606 -5.55112e-17
195 2 85.4637 160.536 -5.55112e-17
196 1 206.703 12.3538 -5.55112e-17
197 2 195.313 47.8002 -5.55112e-17
198 2 75.0459 127.915 -5.55112e-17
199 2 156.073 85.3149 -5.55112e-17
200 2 50.5886 113.14 -5.55112e-17
201 2 87.2878 162.867 -5.55112e-17
202 1 0.522389 112.265 -5.55112e-17
203 1 176.023 0.878026 -5.55112e-17
204 2 143.312 115.309 -5.55112e-17
205 2 98.3846 138.639 -5.55112e-17
206 2 125.662 83.8341 -5.55112e-17
207 1 167.048 146.021 -5.55112e-17
208 2 31.3318 54.5172 -5.55112e-17
209 2 143.667 180.468 -5.55112e-17
210 1 71.6235 207.874 -5.55112e-17
211 1 116.684 73.7264 -5.55112e-17
212 1 179.493 8.44323 -5.55112e-17
213 1 91.2806 106.16 -5.55112e-17
214 2 211.149 117.872 -5.55112e-17
215 1 85.9188 45.7688 -5.55112e-17
216 1 63.1359 213.903 -5.55112e-17
217 1 99.6709 168.616 -5.55112e-17
218 2 116.945 30.1819 -5.55112e-17
219 2 136.793 116.904 -5.55112e-17
220 1 138.103 35.2923 -5.55112e-17
221 2 77.7145 158.866 -5.55112e-17
222 1 163.976 129.218 -5.55112e-17
223 1 64.1413 180.883 -5.55112e-17
224 2 10.7097 18.6397 -5.55112e-17
225 2 179.783 145.988 -5.55112e-17
226 1 80.097 102.09 -5.55112e-17
227 2 126.645 69.5198 -5.55112e-17
228 2 18.104 107.408 -5.55112e-17
229 1 3.18935 142.553 -5.55112e-17
230 1 63.7565 128.417 -5.55112e-17
231 2 109.582 95.2729 -5.55112e-17
232 1 13.4815 87.3614 -5.55112e-17
233 2 189.124 192.107 -5.55112e-17
234 1 51.5723 131.163 -5.55112e-17
235 1 206.681 216.37 -5.55112e-17
236 2 89.6156 25.3343 -5.55112e-17
237 2 20.5668 211.988 -5.55112e-17
238 2 137.822 78.4974 -5.55112e-17
239 1 38.9822 202.6 -5.55112e-17
240 1 69.6968 10.3635 -5.55112e-17
241 2 180.512 50.2917 -5.55112e-17
242 1 68.8024 150.507 -5.55112e-17
243 2 158.015 209.183 -5.55112e-17
244 2 46.694 82.664 -5.55112e-17
245 1 145.921 157.841 -5.55112e-17
246 2 31.5645 194.55 -5.55112e-17
247 2 154.369 27.2526 -5.55112e-17
248 1 190.352 13.8949 -5.55112e-17
249 1 11.2214 50.317 -5.55112e-17
250 1 13.1636 161.034 -5.55112e-17
251 2 202.4 178.761 -5.55112e-17
252 1 64.2645 147.33 -5.55112e-17
253 2 12.8087 104.075 -5.55112e-17
254 2 190.24 23.7129 -5.55112e-17
255 2 102.244 126.098 -5.55112e-17
256 1 179.246 130.258 -5.55112e-17
257 2 34.8609 10.845 -5.55112e-17
258 1 150.207 128.75 -5.55112e-17
259 2 71.4239 106.431 -5.55112e-17
260 1 177.473 94.4927 -5.55112e-17
261 2 89.0723 111.05 -5.55112e-17
262 2 126.582 43.3135 -5.55112e-17
263 2 137.916 168.046 -5.55112e-17
264 1 185.905 153.31 -5.55112e-17
265 1 208.125 39.7154 -5.55112e-17
266 1 139.215 71.4867 -5.55112e-17
267 2 26.6576 145.019 -5.55112e-17
268 1 134.818 137.581 -5.55112e-17
269 2 131.011 19.9923 -5.55112e-17
270 2 218.765 148.482 -5.55112e-17
271 2 151.888 195.255 -5.55112e-17
272 1 89.9481 152.31 -5.55112e-17
273 1 213.817 105.134 -5.55112e-17
274 1 166.404 60.2578 -5.55112e-17
275 1 176.557 111.273 -5.55112e-17
276 1 3.4228 3.19027 -5.55112e-17
277 1 9.7233 193.042 -5.55112e-17
278 2 188.679 26.249 -5.55112e-17
279 2 149.184 60.5948 -5.55112e-17
280 1 80.7062 78.3343 -5.55112e-17
281 2 34.6229 160.006 -5.55112e-17
282 2 72.4817 37.9474 -5.55112e-17
283 2 71.816 131.537 -5.55112e-17
284 1 67.3832 16.3569 -5.55112e-17
285 1 106.045 209.783 -5.55112e-17
286 2 133.522 33.2523 -5.55112e-17
287 2 35.5502 78.6798 -5.55112e-17
288 1 183.419 153.178 -5.55112e-17
289 2 202.304 123.979 -5.55112e-17
290 1 142.277 138.395 -5.55112e-17
291 2 14.1713 48.282 -5.55112e-17
292 1 201.69 109.929 -5.55112e-17
293 1 34.2104 105.048 -5.55112e-17
294 1 87.0421 155.256 -5.55112e-17
295 2 23.0084 33.7253 -5.55112e-17
296 1 27.4012 97.3691 -5.55112e-17
297 1 71.5021 74.0638 -5.55112e-17
298 2 216.939 27.1663 -5.55112e-17
299 1 45.4621 144.849 -5.55112e-17
300 2 124.66 186.394 -5.55112e-17
301 2 65.7982 96.5789 -5.55112e-17
302 2 195.613 50.8383 -5.55112e-17
303 1 115.843 157.049 -5.55112e-17
304 1 209.239 154.519 -5.55112e-17
305 1 133.468 54.2543 -5.55112e-17
306 2 15.8973 88.1887 -5.55112e-17
307 2 45.5136 43.8827 -5.55112e-17
308 2 5.2564 167.319 -5.55112e-17
309 1 72.4301 166.967 -5.55112e-17
310 1 110.067 42.178 -5.55112e-17
311 1 38.4056 7.38071 -5.55112e-17
312 2 171.157 63.7028 -5.55112e-17
313 2 218.817 54.2804 -5.55112e-17
314 1 103.826 155.192 -5.55112e-17
315 2 28.0072 7.97486 -5.55112e-17
316 1 156.892 193.847 -5.55112e-17
317 1 12.9258 85.0581 -5.55112e-17
318 1 16.9575 76.7444 -5.55112e-17
319 2 14.9699 175.167 -5.55112e-17
320 1 13.3049 4.64208 -5.55112e-17
321 1 195.247 179.98 -5.55112e-17
322 1 216.003 60.9726 -5.55112e-17
323 2 208.21 46.5828 -5.55112e-17
324 2 92.9679 182.31 -5.55112e-17
325 2 131.525 60.6498 -5.55112e-17
326 1 155.376 15.1792 -5.55112e-17
327 1 191.37 184.519 -5.55112e-17
328 2 27.6684 165.811 -5.55112e-17
329 2 160.234 123.609 -5.55112e-17
330 2 72.8399 44.2546 -5.55112e-17
331 2 33.6443 35.7094 -5.55112e-17
332 2 172.095 4.7292 -5.55112e-17
333 2 149.36 70.6002 -5.55112e-17
334 2 158.853 191.966 -5.55112e-17
335 1 22.598 125.472 -5.55112e-17
336 2 178.663 97.0977 -5.55112e-17
337 2 191.082 218.727 -5.55112e-17
338 1 103.144 165.68 -5.55112e-17
339 2 153.382 177.419 -5.55112e-17
340 2 140.818 8.07432 -5.55112e-17
341 2 32.7178 109.932 -5.55112e-17
342 2 122.652 163.187 -5.55112e-17
343 2 190.007 163.947 -5.55112e-17
344 1 72.8367 129.046 -5.55112e-17
345 2 97.5239 26.815 -5.55112e-17
346 2 195.847 20.777 -5.55112e-17
347 1 173.398 24.5221 -5.55112e-17
348 1 127.897 97.948 -5.55112e-17
349 2 119.266 120.968 -5.55112e-17
350 2 114.21 19.4208 -5.55112e-17
351 1 153.164 72.8886 -5.55112e-17
352 1 199.343 106.439 -5.55112e-17
353 2 90.9976 47.0171 -5.55112e-17
354 2 151.109 47.3439 -5.55112e-17
355 1 176.508 27.3526 -5.55112e-17
356 2 18.3242 207.038 -5.55112e-17
357 1 163.445 85.5457 -5.55112e-17
358 1 1.71005 88.6308 -5.55112e-17
359 1 106.663 103.43 -5.55112e-17
360 1 213.375 148.052 -5.55112e-17
361 2 164.024 59.2293 -5.55112e-17
362 2 86.9065 127.294 -5.55112e-17
363 1 109.755 146.636 -5.55112e-17
364 2 83.7994 105.294 -5.55112e-17
365 1 77.1748 117.373 -5.55112e-17
366 1 165.776 138.463 -5.55112e-17
367 1 56.0479 98.573 -5.55112e-17
368 1 28.0183 137.352 -5.55112e-17
369 2 104.843 130.588 -5.55112e-17
370 1 93.4897 45.9024 -5.55112e-17
371 2 93.3233 87.2134 -5.55112e-17
372 1 153.852 91.9826 -5.55112e-17
373 2 199.066 100.549 -5.55112e-17
374 2 112.467 202.537 -5.55112e-17
375 1 129.038 88.6908 -5.55112e-17
376 1 183.285 199.744 -5.55112e-17
377 2 3.77234 180.479 -5.55112e-17
378 2 108.927 77.1274 -5.55112e-17
379 2 28.2857 129.659 -5.55112e-17
380 1 80.3038 176.061 -5.55112e-17
381 1 37.0928 203.977 -5.55112e-17
382 1 73.3727 28.5281 -5.55112e-17
383 1 42.3184 194.996 -5.55112e-17
384 2 135.038 69.3483 -5.55112e-17
385 1 117.572 174.111 -5.55112e-17
386 2 164.747 95.395 -5.55112e-17
387 1 91.11 165.583 -5.55112e-17
388 1 84.579 2.59467 -5.55112e-17
389 2 64.7813 17.1769 -5.55112e-17
390 1 48.7697 24.9789 -5.55112e-17
391 1 167.186 80.5773 -5.55112e-17
392 2 107.532 17.4541 -5.55112e-17
393 2 137.597 46.0476 -5.55112e-17
394 1 32.7562 169.953 -5.55112e-17
395 1 74.2337 62.2313 -5.55112e-17
396 2 163.593 126.763 -5.55112e-17
397 1 22.8605 137.594 -5.55112e-17
398 2 20.8945 176.248 -5.55112e-17
399 2 39.3825 45.8277 -5.55112e-17
400 2 147.304 10.0784 -5.55112e-17
401 2 29.3695 86.0372 -5.55112e-17
402 1 59.6098 70.1164 -5.55112e-17
403 1 96.7716 18.8832 -5.55112e-17
404 2 45.7057 210.418 -5.55112e-17
405 1 99.9461 154.295 -5.55112e-17
406 2 149.14 41.7224 -5.55112e-17
407 1 155.201 154.904 -5.55112e-17
408 1 106.654 71.9007 -5.55112e-17
409 2 99.6858 178.895 -5.55112e-17
410 2 187.682 21.9229 -5.55112e-17
411 1 6.61026 15.2412 -5.55112e-17
412 1 93.6145 155.936 -5.55112e-17
413 1 145.981 83.1283 -5.55112e-17
414 2 124.324 33.5794 -5.55112e-17
415 1 104.722 150.204 -5.55112e-17
416 1 181.49 170.177 -5.55112e-17
417 2 83.8854 131.367 -5.55112e-17
418 2 172.729 15.8453 -5.55112e-17
419 2 34.9497 86.3315 -5.55112e-17
420 2 110.262 136.631 -5.55112e-17
421 1 101.738 107.871 -5.55112e-17
422 1 110.337 49.3683 -5.55112e-17
423 2 159.788 97.6082 -5.55112e-17
424 2 172.559 31.4632 -5.55112e-17
425 2 196.131 90.5192 -5.55112e-17
426 1 91.6836 53.0211 -5.55112e-17
427 2 46.3592 93.1743 -5.55112e-17
428 1 172.686 102.825 -5.55112e-17
429 2 70.0786 69.3623 -5.55112e-17
430 2 20.7213 31.787 -5.55112e-17
431 1 94.5378 130.137 -5.55112e-17
432 2 91.8335 85.112 -5.55112e-17
433 1 39.2746 98.2486 -5.55112e-17
434 1 88.8582 179.766 -5.55112e-17
435 1 60.6012 60.3387 -5.55112e-17
436 2 209.067 101.95 -5.55112e-17
437 2 193.732 28.2254 -5.55112e-17
438 2 35.1722 151.103 -5.55112e-17
439 2 93.001 6.75873 -5.55112e-17
440 2 122.85 110.203 -5.55112e-17
441 1 162.508 75.6555 -5.55112e-17
442 1 107.57 126.754 -5.55112e-17
443 2 25.1016 92.5952 -5.55112e-17
444 1 97.3768 169.204 -5.55112e-17
445 1 112.947 12.2168 -5.55112e-17
446 2 148.199 148.582 -5.55112e-17
447 2 192.901 178.735 -5.55112e-17
448 2 106.373 200.009 -5.55112e-17
449 1 135.776 102.356 -5.55112e-17
450 1 213.47 125.572 -5.55112e-17
451 1 89.6066 69.8057 -5.55112e-17
452 2 123.143 178.952 -5.55112e-17
453 1 107.795 49.6664 -5.55112e-17
454 1 34.4804 54.2422 -5.55112e-17
455 2 121.062 35.1576 -5.55112e-17
456 1 105.202 9.98071 -5.55112e-17
457 2 192.285 173.531 -5.55112e-17
458 2 211.977 120.675 -5.55112e-17
459 2 212.03 200.754 -5.55112e-17
460 1 193.837 79.1549 -5.55112e-17
461 1 42.6415 76.8548 -5.55112e-17
462 1 31.6438 160.174 -5.55112e-17
463 2 208.882 169.266 -5.55112e-17
464 2 196.571 44.2286 -5.55112e-17
465 1 80.1392 154.089 -5.55112e-17
466 2 21.0378 164.377 -5.55112e-17
467 2 145.656 182.957 -5.55112e-17
468 2 27.5446 213.168 -5.55112e-17
469 2 157.213 132.312 -5.55112e-17
470 2 165.851 35.8296 -5.55112e-17
471 2 174.264 197.078 -5.55112e-17
472 2 126.414 100.164 -5.55112e-17
473 2 128.55 26.0157 -5.55112e-17
474 2 20.4221 136.562 -5.55112e-17
475 1 187.867 86.3938 -5.55112e-17
476 2 39.8107 194.856 -5.55112e-17
477 1 75.0401 89.0744 -5.55112e-17
478 1 138.182 118.935 -5.55112e-17
479 2 5.35813 171.591 -5.55112e-17
480 1 148.939 78.8433 -5.55112e-17
481 1 86.4108 31.887 -5.55112e-17
482 2 63.1413 198.258 -5.55112e-17
483 1 48.9445 54.6477 -5.55112e-17
484 1 212.858 48.3887 -5.55112e-17
485 2 39.7913 152.932 -5.55112e-17
486 1 125.755 53.7916 -5.55112e-17
487 1 213.854 155.644 -5.55112e-17
488 1 25.9509 58.5464 -5.55112e-17
489 1 195.833 203.356 -5.55112e-17
490 1 150.231 86.2442 -5.55112e-17
491 1 144.045 98.0219 -5.55112e-17
492 2 163.573 113.605 -5.55112e-17
493 1 40.491 168.976 -5.55112e-17
494 2 213.746 145.727 -5.55112e-17
495 1 3.50022 207.722 -5.55112e-17
496 1 190.346 129.466 -5.55112e-17
497 1 116.927 131.36 -5.55112e-17
498 2 206.709 60.5016 -5.55112e-17
499 2 100.198 143.693 -5.55112e-17
500 2 217.731 127.59 -5.55112e-17
501 2 124.178 27.9325 -5.55112e-17
502 2 85.6362 89.9481 -5.55112e-17
503 2 111.618 148.422 -5.55112e-17
504 2 56.2585 192.308 -5.55112e-17
505 2 197.721 143.036 -5.55112e-17
506 1 24.2989 62.9749 -5.55112e-17
507 2 204.099 36.0105 -5.55112e-17
508 1 188.2 39.8032 -5.55112e-17
509 1 65.8561 11.5438 -5.55112e-17
510 1 61.8162 81.067 -5.55112e-17
511 2 58.9615 110.003 -5.55112e-17
512 1 200.796 67.8545 -5.55112e-17
513 2 165.834 212.602 -5.55112e-17
514 2 102.177 43.0377 -5.55112e-17
515 1 188.606 4.83276 -5.55112e-17
516 2 17.1668 172.812 -5.55112e-17
517 1 193.343 125.904 -5.55112e-17
518 2 94.4004 204.847 -5.55112e-17
519 1 9.488 90.9891 -5.55112e-17
520 2 191.918 216.101 -5.55112e-17
521 2 150.219 173.142 -5.55112e-17
522 1 113.006 158.358 -5.55112e-17
523 1 103.737 107.245 -5.55112e-17
524 2 127.173 90.6863 -5.55112e-17
525 2 82.3321 39.115 -5.55112e-17
526 2 90.7623 200.764 -5.55112e-17
527 1 59.8487 192.348 -5.55112e-17
528 1 202.473 51.3061 -5.55112e-17
529 2 122.844 97.138 -5.55112e-17
530 2 196.79 217.992 -5.55112e-17
531 2 67.0107 137.904 -5.55112e-17
532 1 1.13492 128.217 -5.55112e-17
533 2 20.1666 83.2543 -5.55112e-17
534 1 191.599 53.5797 -5.55112e-17
535 1 29.826 141.747 -5.55112e-17
536 2 186.412 193.572 -5.55112e-17
537 1 129.731 50.1727 -5.55112e-17
538 1 9.91896 200.368 -5.55112e-17
539 2 171.311 76.1647 -5.55112e-17
540 1 52.8395 114.954 -5.55112e-17
541 1 100.644 200.187 -5.55112e-17
542 1 47.5908 178.901 -5.55112e-17
543 2 83.1288 89.9227 -5.55112e-17
544 1 121.277 52.2636 -5.55112e-17
545 1 140.52 136.451 -5.55112e-17
546 2 51.4008 213.587 -5.55112e-17
547 1 218.224 98.2109 -5.55112e-17
548 1 3.83859 132.548 -5.55112e-17
549 2 185.613 215.536 -5.55112e-17
550 2 53.255 97.8749 -5.55112e-17
551 2 84.6796 169.576 -5.55112e-17
552 1 136.911 37.4722 -5.55112e-17
553 2 172.728 137.728 -5.55112e-17
554 2 74.8292 176.275 -5.55112e-17
555 2 126.989 138.855 -5.55112e-17
556 1 92.1804 138.504 -5.55112e-17
557 1 97.6748 166.404 -5.55112e-17
558 1 43.8546 14.4437 -5.55112e-17
559 2 34.6768 121.848 -5.55112e-17
560 2 139.244 76.1668 -5.55112e-17
561 2 56.6482 40.4177 -5.55112e-17
562 2 217.47 198.673 -5.55112e-17
563 1 183.341 127.593 -5.55112e-17
564 2 29.7884 23.6844 -5.55112e-17
565 2 84.3292 108.262 -5.55112e-17
566 2 168.845 61.8794 -5.55112e-17
567 1 14.0582 172.279 -5.55112e-17
568 1 124.638 174.781 -5.55112e-17
569 2 77.6354 31.387 -5.55112e-17
570 2 156.082 98.199 -5.55112e-17
571 2 15.0307 38.5873 -5.55112e-17
572 1 116.37 206.752 -5.55112e-17
573 2 104.785 69.9855 -5.55112e-17
574 2 66.3376 188.065 -5.55112e-17
575 1 20.5858 106.691 -5.55112e-17
576 1 12.0546 6.97837 -5.55112e-17
577 1 50.0778 76.8337 -5.55112e-17
578 1 76.6112 215.508 -5.55112e-17
579 2 6.5759 214.403 -5.55112e-17
580 1 101.422 183.236 -5.55112e-17
581 1 198.865 186.482 -5.55112e-17
582 2 166.542 118.315 -5.55112e-17
583 2 132.171 204.179 -5.55112e-17
584 2 155.11 12.4983 -5.55112e-17
585 1 181.925 2.50498 -5.55112e-17
586 1 56.8794 21.5904 -5.55112e-17
587 1 184.808 189.257 -5.55112e-17
588 2 133.767 97.8048 -5.55112e-17
589 1 153.226 24.8043 -5.55112e-17
590 2 210.501 60.2208 -5.55112e-17
591 2 27.5875 77.0559 -5.55112e-17
592 1 101.666 65.1202 -5.55112e-17
593 1 189.078 186.341 -5.55112e-17
594 1 56.3331 202.823 -5.55112e-17
595 1 164.115 158.38 -5.55112e-17
596 2 36.3142 81.8755 -5.55112e-17
597 2 177.067 61.2897 -5.55112e-17
598 2 37.7406 42.9948 -5.55112e-17
599 2 190.565 28.3526 -5.55112e-17
600 2 188.493 159.02 -5.55112e-17
601 1 105.386 13.4039 -5.55112e-17
602 1 96.4156 174.37 -5.55112e-17
603 2 76.1129 108.548 -5.55112e-17
604 1 177.18 63.7325 -5.55112e-17
605 2 186.262 91.5204 -5.55112e-17
606 2 68.6515 130.527 -5.55112e-17
607 2 167.589 73.6533 -5.55112e-17
608 2 107.695 6.38405 -5.55112e-17
609 1 27.304 159.157 -5.55112e-17
610 2 10.9338 190.287 -5.55112e-17
611 1 2.7146 217.491 -5.55112e-17
612 1 49.8417 88.3245 -5.55112e-17
613 2 186.058 126.081 -5.55112e-17
614 1 31.5375 172.162 -5.55112e-17
615 1 186.901 164.489 -5.55112e-17
616 2 127.2 135.536 -5.55112e-17
617 1 8.21367 164.099 -5.55112e-17
618 1 216.255 81.4177 -5.55112e-17
619 1 183.47 19.5896 -5.55112e-17
620 2 210.519 56.7105 -5.55112e-17
621 2 151.988 205.684 -5.55112e-17
622 2 200.602 167.415 -5.55112e-17
623 2 141.036 205.458 -5.55112e-17
624 1 165.163 192.994 -5.55112e-17
625 2 154.684 22.6256 -5.55112e-17
626 1 86.7837 109.43 -5.55112e-17
627 2 189.4 172.085 -5.55112e-17
628 1 55.4137 50.0992 -5.55112e-17
629 1 120.899 143.677 -5.55112e-17
630 2 146.763 28.4611 -5.55112e-17
631 2 56.3022 127.597 -5.55112e-17
632 2 135.388 63.7469 -5.55112e-17
633 2 38.2628 29.3346 -5.55112e-17
634 2 103.891 29.2891 -5.55112e-17
635 2 49.3786 12.1094 -5.55112e-17
636 1 180.926 126.077 -5.55112e-17
637 1 53.1321 2.30215 -5.55112e-17
638 1 102.119 81.3406 -5.55112e-17
639 2 148.492 217.929 -5.55112e-17
640 2 206.613 143.088 -5.55112e-17
641 1 3.17067 43.7539 -5.55112e-17
642 2 136.794 206.805 -5.55112e-17
643 1 146.618 38.2505 -5.55112e-17
644 2 189.74 63.8909 -5.55112e-17
645 2 198.805 6.75154 -5.55112e-17
646 1 129.269 189.951 -5.55112e-17
647 2 43.5316 54.8673 -5.55112e-17
648 2 207.347 173.457 -5.55112e-17
649 1 91.2489 112.098 -5.55112e-17
650 1 215.475 77.1555 -5.55112e-17
651 1 101.949 217.976 -5.55112e-17
652 2 93.0319 148.232 -5.55112e-17
653 2 16.7219 25.0099 -5.55112e-17
654 1 111.153 194.339 -5.55112e-17
655 1 109.703 59.2462 -5.55112e-17
656 1 18.041 95.2282 -5.55112e-17
657 1 100.005 96.5657 -5.55112e-17
658 2 88.6224 100.384 -5.55112e-17
659 2 26.5571 139.547 -5.55112e-17
660 1 73.8743 65.1495 -5.55112e-17
661 2 36.2017 176.548 -5.55112e-17
662 2 75.6944 105.55 -5.55112e-17
663 1 107.303 146.125 -5.55112e-17
664 1 77.4178 68.7266 -5.55112e-17
665 1 76.4713 169.212 -5.55112e-17
666 1 25.4582 157.243 -5.55112e-17
667 1 103.38 99.8107 -5.55112e-17
668 1 49.5914 5.86251 -5.55112e-17
669 1 45.896 117.558 -5.55112e-17
670 2 64.5699 208.652 -5.55112e-17
671 1 74.6274 124.873 -5.55112e-17
672 1 2.60336 202.698 -5.55112e-17
673 2 215.831 124.816 -5.55112e-17
674 2 136.489 188.319 -5.55112e-17
675 2 34.9246 114.715 -5.55112e-17
676 1 96.9387 162.458 -5.55112e-17
677 2 173.577 188.135 -5.55112e-17
678 1 206.416 183.764 -5.55112e-17
679 1 77.6062 41.4337 -5.55112e-17
680 2 86.5821 73.7555 -5.55112e-17
681 1 137.256 156.281 -5.55112e-17
682 1 146.888 91.7458 -5.55112e-17
683 2 126.682 23.4887 -5.55112e-17
684 1 95.9972 164.915 -5.55112e-17
685 1 152.231 111.364 -5.55112e-17
686 1 68.7918 187.249 -5.55112e-17
687 1 188.769 138.974 -5.55112e-17
688 1 144.796 123.423 -5.55112e-17
689 2 167.637 23.9461 -5.55112e-17
690 1 169.069 105.386 -5.55112e-17
691 2 166.622 128.861 -5.55112e-17
692 2 131.508 25.672 -5.55112e-17
693 1 129.059 2.78806 -5.55112e-17
694 2 216.292 185.692 -5.55112e-17
695 2 107.4 186.933 -5.55112e-17
696 2 23.2266 17.8576 -5.55112e-17
697 1 59.4781 156.355 -5.55112e-17
698 2 199.158 20.6419 -5.55112e-17
699 1 134.594 50.1341 -5.55112e-17
700 2 198.743 42.3185 -5.55112e-17
701 2 126.756 169.331 -5.55112e-17
702 1 171.106 204.714 -5.55112e-17
703 1 191.969 147.368 -5.55112e-17
704 1 46.255 202.65 -5.55112e-17
705 1 103.579 109.609 -5.55112e-17
706 1 27.641 38.1399 -5.55112e-17
707 1 54.3058 134.701 -5.55112e-17
708 2 201.319 147.228 -5.55112e-17
709 1 10.2242 168.538 -5.55112e-17
710 2 6.60841 59.2763 -5.55112e-17
711 2 29.3676 180.453 -5.55112e-17
712 1 208.42 124.074 -5.55112e-17
713 1 61.0282 196.237 -5.55112e-17
714 2 218.706 157.723 -5.55112e-17
715 2 75.2003 160.335 -5.55112e-17
716 1 149.909 103.568 -5.55112e-17
717 1 7.23702 71.3378 -5.55112e-17
718 2 75.8958 77.4171 -5.55112e-17
719 1 108.757 170.681 -5.55112e-17
720 2 100.962 99.1491 -5.55112e-17
721 2 130.275 0.595763 -5.55112e-17
722 2 202.667 48.6602 -5.55112e-17
723 2 33.743 5.81273 -5.55112e-17
724 2 41.4311 59.9556 -5.55112e-17
725 2 55.0473 151.133 -5.55112e-17
726 2 193.136 128.256 -5.55112e-17
727 2 191.05 200.194 -5.55112e-17
728 1 70.4787 218.546 -5.55112e-17
729 2 100.051 151.382 -5.55112e-17
730 2 103.012 120.321 -5.55112e-17
731 1 48.3733 121.69 -5.55112e-17
732 2 38.5359 197.324 -5.55112e-17
733 2 69.5848 112.006 -5.55112e-17
734 2 183.019 115.407 -5.55112e-17
735 2 192.9 61.8215 -5.55112e-17
736 1 5.48262 143.429 -5.55112e-17
737 2 138.024 209.461 -5.55112e-17
738 2 119.086 117.959 -5.55112e-17
739 2 66.7544 159.668 -5.55112e-17
740 2 183.344 124.949 -5.55112e-17
741 2 155.989 207.028 -5.55112e-17
742 1 17.287 110.054 -5.55112e-17
743 2 68.1837 26.7072 -5.55112e-17
744 1 167.088 90.529 -5.55112e-17
745 2 72.582 9.4339 -5.55112e-17
746 1 93.1953 193.346 -5.55112e-17
747 1 191.08 158.732 -5.55112e-17
748 2 17.8416 102.202 -5.55112e-17
749 1 184.147 1.14279 -5.55112e-17
750 1 135.828 2.21188 -5.55112e-17
751 1 96.8114 59.8089 -5.55112e-17
752 2 161.927 5.65574 -5.55112e-17
753 1 47.8818 1.0537 -5.55112e-17
754 2 72.9009 140.914 -5.55112e-17
755 1 12.5995 32.148 -5.55112e-17
756 2 191.631 187.31 -5.55112e-17
757 1 80.8175 7.50906 -5.55112e-17
758 2 159.169 136.533 -5.55112e-17
759 1 217.913 123.01 -5.55112e-17
760 1 25.4624 212.027 -5.55112e-17
761 2 211.057 26.1729 -5.55112e-17
762 1 32.4945 212.73 -5.55112e-17
763 2 42.247 23.2702 -5.55112e-17
764 2 35.4868 22.9906 -5.55112e-17
765 1 43.8204 7.19629 -5.55112e-17
766 2 76.1578 163.242 -5.55112e-17
767 2 88.9686 72.6403 -5.55112e-17
768 2 128.607 71.6127 -5.55112e-17
769 2 142.138 54.6457 -5.55112e-17
770 1 207.069 122.081 -5.55112e-17
771 1 207.057 199.413 -5.55112e-17
772 1 130.772 17.4793 -5.55112e-17
773 2 48.7989 79.9972 -5.55112e-17
774 1 145.496 15.068 -5.55112e-17
775 1 161.381 184.948 -5.55112e-17
776 2 211.69 83.1671 -5.55112e-17
777 2 120.269 151.521 -5.55112e-17
778 1 101.671 136.243 -5.55112e-17
779 1 100.711 86.628 -5.55112e-17
780 2 132.719 51.7785 -5.55112e-17
781 1 205.185 166.437 -5.55112e-17
782 2 50.805 85.9393 -5.55112e-17
783 1 25.8758 67.7753 -5.55112e-17
784 2 95.3495 167.509 -5.55112e-17
785 1 97.9576 176.149 -5.55112e-17
786 1 217.641 49.414 -5.55112e-17
787 2 185.467 131.989 -5.55112e-17
788 2 69.8722 145.568 -5.55112e-17
789 2 177.13 81.3572 -5.55112e-17
790 2 12.6384 55.6164 -5.55112e-17
791 2 172.441 7.71722 -5.55112e-17
792 1 16.315 134.261 -5.55112e-17
793 1 4.08161 67.6758 -5.55112e-17
794 2 157.85 139.077 -5.55112e-17
795 2 76.5116 209.665 -5.55112e-17
796 1 52.0568 206.097 -5.55112e-17
797 1 192.46 105.815 -5.55112e-17
798 1 62.4163 72.9357 -5.55112e-17
799 2 206.858 67.5203 -5.55112e-17
800 1 98.4636 1.61282 -5.55112e-17
801 2 19.0154 204.087 -5.55112e-17
802 1 8.46959 127.976 -5.55112e-17
803 1 35.3177 68.2414 -5.55112e-17
804 1 3.67586 62.8276 -5.55112e-17
805 2 43.9225 201.291 -5.55112e-17
806 2 100.995 209.044 -5.55112e-17
807 2 139.804 4.94912 -5.55112e-17
808 2 66.6824 210.322 -5.55112e-17
809 1 209.286 175.296 -5.55112e-17
810 2 118.127 198.037 -5.55112e-17
811 2 206.312 95.4234 -5.55112e-17
812 1 189.093 153.537 -5.55112e-17
813 1 91.1457 156.706 -5.55112e-17
814 1 50.8194 122.063 -5.55112e-17
815 1 208.713 183.21 -5.55112e-17
816 1 116.332 168.472 -5.55112e-17
817 2 47.7286 32.9501 -5.55112e-17
818 2 83.526 180.995 -5.55112e-17
819 2 177.611 122.18 -5.55112e-17
820 1 108.71 104.488 -5.55112e-17
821 1 76.0408 102.506 -5.55112e-17
822 2 84.8076 97.1689 -5.55112e-17
823 1 125.354 49.851 -5.55112e-17
824 1 61.6229 135.431 -5.55112e-17
825 1 14.6045 1.9487 -5.55112e-17
826 2 49.8343 172.349 -5.55112e-17
827 2 62.9326 203.908 -5.55112e-17
828 1 217.707 153.453 -5.55112e-17
829 2 61.2768 123.572 -5.55112e-17
830 1 97.6459 180.687 -5.55112e-17
831 2 73.8574 182.61 -5.55112e-17
832 2 130.975 131.311 -5.55112e-17
833 2 52.345 4.91778 -5.55112e-17
834 1 138.918 98.8068 -5.55112e-17
835 1 116.781 139.041 -5.55112e-17
836 1 65.3661 144.966 -5.55112e-17
837 2 149.155 12.5373 -5.55112e-17
838 2 128.155 130.183 -5.55112e-17
839 1 47.0822 3.48911 -5.55112e-17
840 2 72.7963 71.8846 -5.55112e-17
841 2 111.059 215.376 -5.55112e-17
842 1 9.44682 115.756 -5.55112e-17
843 1 108.743 210.239 -5.55112e-17
844 2 31.9858 140.513 -5.55112e-17
845 1 214.544 87.4568 -5.55112e-17
846 2 37.077 173.396 -5.55112e-17
847 1 6.86144 193.134 -5.55112e-17
848 2 108.251 161.152 -5.55112e-17
849 1 33.676 66.2849 -5.55112e-17
850 2 17.0576 155.36 -5.55112e-17
851 2 19.4983 158.302 -5.55112e-17
852 1 162.002 121.722 -5.55112e-17
853 1 31.3394 92.6923 -5.55112e-17
854 2 200.604 52.7453 -5.55112e-17
855 2 167.212 148.935 -5.55112e-17
856 1 130.411 152.216 -5.55112e-17