ITEM: TIMESTEP
0
ITEM: NUMBER OF ATOMS
7200
ITEM: BOX BOUNDS xy xz yz pp pp pp
0.0000000000000000e+00 2.1900000000000000e+02 0.0000000000000000e+00
0.0000000000000000e+00 2.1900000000000000e+02 0.0000000000000000e+00
-3.6499999999999999e-01 3.6499999999999999e-01 0.0000000000000000e+00
ITEM: ATOMS id type x y z
1 1 172.165 148.006 -5.55112e-17
2 2 39.0023 150.425 -5.55112e-17
3 2 23.7697 105.471 -5.55112e-17
4 1 34.253 156.165 -5.55112e-17
5 1 104.773 183.512 -5.55112e-17
6 1 157.982 29.5349 -5.55112e-17
7 2 4.64501 69.7384 -5.55112e-17
8 2 41.4152 29.581 -5.55112e-17
9 1 122.177 217.937 -5.55112e-17
10 2 217.746 101.55 -5.55112e-17
11 2 120.016 81.6127 -5.55112e-17
12 1 164.172 113.957 -5.55112e-17
13 2 151.36 117.663 -5.55112e-17
14 1 128.464 183.057 -5.55112e-17
15 2 13.5541 19.5292 -5.55112e-17
16 2 14.0855 42.107 -5.55112e-17
17 1 13.3677 75.1369 -5.55112e-17
18 2 55.0571 15.8541 -5.55112e-17
19 1 0.583414 49.969 -5.55112e-17
20 1 121.98 2.09741 -5.55112e-17
21 1 111.427 28.2976 -5.55112e-17
22 2 102.657 54.2736 -5.55112e-17
23 2 65.848 156.568 -5.55112e-17
24 2 132.454 4.41707 -5.55112e-17
25 2 213.506 29.7884 -5.55112e-17
26 2 70.1552 35.4447 -5.55112e-17
27 1 149.719 115.589 -5.55112e-17
28 2 210.672 185.778 -5.55112e-17
29 2 176.134 96.4464 -5.55112e-17
30 2 162.901 59.0846 -5.55112e-17
31 2 212.728 146.43 -5.55112e-17
32 1 151.867 24.369 -5.55112e-17
33 2 154.701 196.075 -5.55112e-17
34 2 199.371 76.1418 -5.55112e-17
35 2 66.0423 36.5624 -5.55112e-17
36 1 97.5728 26.582 -5.55112e-17
37 1 164.456 145.381 -5.55112e-17
38 2 101.072 16.295 -5.55112e-17
39 1 180.723 19.6853 -5.55112e-17
40 2 81.2158 218.327 -5.55112e-17
41 1 20.4076 4.56354 -5.55112e-17
42 1 7.07254 73.9434 -5.55112e-17
43 1 197.253 164.318 -5.55112e-17
44 1 190.663 103.222 -5.55112e-17
45 2 124.666 39.0821 -5.55112e-17
46 1 22.5584 3.24464 -5.55112e-17
47 2 214.014 173.875 -5.55112e-17
48 2 16.929 218.006 -5.55112e-17
49 1 5.87554 45.3573 -5.55112e-17
50 2 137.586 6.57044 -5.55112e-17
51 1 80.0541 36.8923 -5.55112e-17
52 1 142.304 128.451 -5.55112e-17
53 2 159.386 98.0724 -5.55112e-17
54 1 9.15306 195.688 -5.55112e-17
55 2 166.082 35.3882 -5.55112e-17
56 1 136.926 109.267 -5.55112e-17
57 2 68.1378 81.6751 -5.55112e-17
58 1 19.5995 202.901 -5.55112e-17
59 1 209.841 94.1069 -5.55112e-17
60 2 141.149 130.811 -5.55112e-17
61 1 44.6253 188.569 -5.55112e-17
62 1 189.522 18.5261 -5.55112e-17
63 2 115.024 36.3923 -5.55112e-17
64 1 33.7627 18.1348 -5.55112e-17
65 2 118.077 181.482 -5.55112e-17
66 2 98.3504 137.568 -5.55112e-17
67 2 74.306 54.894 -5.55112e-17
68 1 66.9586 146.816 -5.55112e-17
69 2 144.836 67.9665 -5.55112e-17
70 1 74.1407 98.8578 -5.55112e-17
71 1 196.645 1.8465 -5.55112e-17
72 2 181.055 205.036 -5.55112e-17
73 2 56.1705 154.805 -5.55112e-17
74 2 71.7455 179.755 -5.55112e-17
75 1 12.8065 143.679 -5.55112e-17
76 2 136.428 168.85 -5.55112e-17
77 2 85.4455 2.92772 -5.55112e-17
78 1 117.717 150.32 -5.55112e-17
79 2 69.3901 175.254 -5.55112e-17
80 1 100.12 168.502 -5.55112e-17
81 1 78.8076 101.109 -5.55112e-17
82 1 83.4338 132.589 -5.55112e-17
83 1 215.302 17.8908 -5.55112e-17
84 2 196.162 202.525 -5.55112e-17
85 2 32.6467 23.3162 -5.55112e-17
86 2 197.75 159.259 -5.55112e-17
87 2 139.529 194.23 -5.55112e-17
88 1 122.475 123.91 -5.55112e-17
89 2 123.091 109.3 -5.55112e-17
90 2 188.466 41.0585 -5.55112e-17
91 2 183.371 34.5491 -5.55112e-17
92 1 124.346 52.925 -5.55112e-17
93 2 119.633 162.479 -5.55112e-17
94 2 108.041 194.134 -5.55112e-17
95 1 186.795 49.2962 -5.55112e-17
96 2 81.4032 215.014 -5.55112e-17
97 2 9.83185 60.2294 -5.55112e-17
98 2 36.3679 143.464 -5.55112e-17
99 1 94.0677 168.424 -5.55112e-17
100 2 76.8206 110.602 -5.55112e-17
101 1 142.828 187.362 -5.55112e-17
102 1 114.387 116.972 -5.55112e-17
103 2 125.405 104.057 -5.55112e-17
104 2 84.8023 123.446 -5.55112e-17
105 1 35.8088 122.477 -5.55112e-17
106 1 78.1873 90.6617 -5.55112e-17
107 1 125.923 189.028 -5.55112e-17
108 1 12.2623 9.45771 -5.55112e-17
109 2 160.541 148.915 -5.55112e-17
110 2 65.9409 71.1403 -5.55112e-17
111 1 24.2608 25.5869 -5.55112e-17
112 2 28.9055 76.1604 -5.55112e-17
113 1 45.4151 181.068 -5.55112e-17
114 1 199.497 157.24 -5.55112e-17
115 2 42.2335 64.7718 -5.55112e-17
116 2 107.991 6.37928 -5.55112e-17
117 1 144.236 62.8051 -5.55112e-17
118 1 88.6992 132.186 -5.55112e-17
119 2 160.637 92.9398 -5.55112e-17
120 2 47.3927 157.887 -5.55112e-17
121 1 119.238 209.489 -5.55112e-17
122 2 202.441 23.3432 -5.55112e-17
123 2 42.1339 12.3751 -5.55112e-17
124 1 27.2872 215.103 -5.55112e-17
125 1 156.654 154.049 -5.55112e-17
126 2 22.1852 195.583 -5.55112e-17
127 2 192.351 96.3116 -5.55112e-17
128 1 114.894 210.77 -5.55112e-17
129 1 89.6445 188.259 -5.55112e-17
130 2 91.3186 30.6925 -5.55112e-17
131 1 48.9338 111.897 -5.55112e-17
132 1 4.74606 83.809 -5.55112e-17
133 1 151.433 96.8121 -5.55112e-17
134 1 202.878 176.859 -5.55112e-17
135 2 184.607 41.3386 -5.55112e-17
136 1 10.2221 153.148 -5.55112e-17
137 1 16.3842 7.59016 -5.55112e-17
138 2 90.4626 15.4576 -5.55112e-17
139 1 211.824 24.5916 -5.55112e-17
140 1 218.075 140.117 -5.55112e-17
141 1 185.693 173.915 -5.55112e-17
142 1 74.9179 105.791 -5.55112e-17
143 1 67.4501 142.056 -5.55112e-17
144 1 151.185 57.8875 -5.55112e-17
145 2 34.7712 87.2303 -5.55112e-17
146 1 114.603 190.665 -5.55112e-17
147 2 160.94 155.444 -5.55112e-17
148 1 116.198 169.598 -5.55112e-17
149 1 58.8726 76.1495 -5.55112e-17
150 2 105.197 192.691 -5.55112e-17
151 1 145.449 71.9998 -5.55112e-17
152 1 181.862 147.765 -5.55112e-17
153 2 18.0513 151.487 -5.55112e-17
154 1 14.4415 112.608 -5.55112e-17
155 2 217.691 167.001 -5.55112e-17
156 2 120.802 185.675 -5.55112e-17
157 2 116.083 183.634 -5.55112e-17
158 2 37.2013 199.393 -5.55112e-17
159 2 80.1306 179.74 -5.55112e-17
160 2 184.4 52.8134 -5.55112e-17
161 2 210.487 96.883 -5.55112e-17
162 1 67.1668 161.547 -5.55112e-17
163 1 214.343 58.3967 -5.55112e-17
164 2 31.4823 204.547 -5.55112e-17
165 1 13.0154 205.65 -5.55112e-17
166 2 4.19776 153.223 -5.55112e-17
167 1 201.56 199.984 -5.55112e-17
168 1 210.952 215.812 -5.55112e-17
169 2 204.344 102.447 -5.55112e-17
170 1 45.8602 116.004 -5.55112e-17
171 1 135.752 29.2805 -5.55112e-17
172 1 119.936 100.413 -5.55112e-17
173 1 84.8377 185.864 -5.55112e-17
174 2 55.0742 170.003 -5.55112e-17
175 2 183.833 96.928 -5.55112e-17
176 1 167.832 190.491 -5.55112e-17
177 2 43.1389 97.4655 -5.55112e-17
178 1 88.6675 9.85593 -5.55112e-17
179 2 15.6806 114.967 -5.55112e-17
180 1 172.483 39.1052 -5.55112e-17
181 1 1.63207 133.999 -5.55112e-17
182 1 43.9881 29.9672 -5.55112e-17
183 1 139.919 7.72957 -5.55112e-17
184 2 118.515 110.882 -5.55112e-17
185 2 172.375 134.481 -5.55112e-17
186 2 177.685 85.6857 -5.55112e-17
187 2 111.056 200.559 -5.55112e-17
188 2 119.527 5.56927 -5.55112e-17
189 1 204.319 38.9878 -5.55112e-17
190 1 125.56 186.511 -5.55112e-17
191 2 110.041 149.111 -5.55112e-17
192 2 195.865 91.5921 -5.55112e-17
193 1 38.0183 123.125 -5.55112e-17
194 1 46.1061 196.924 -5.55112e-17
195 2 102.666 191.234 -5.55112e-17
196 1 35.6652 212.393 -5.55112e-17
197 2 167.452 151.247 -5.55112e-17
198 2 151.563 137.136 -5.55112e-17
199 2 39.8968 22.5943 -5.55112e-17
200 2 40.3539 72.8016 -5.55112e-17
201 2 131.108 158.74 -5.55112e-17
202 1 118.168 195.867 -5.55112e-17
203 1 102.899 29.9961 -5.55112e-17
204 2 89.4128 84.5645 -5.55112e-17
205 2 216.077 195.392 -5.55112e-17
206 2 43.7503 100.515 -5.55112e-17
207 1 24.6045 118.051 -5.55112e-17
208 2 184.844 209.654 -5.55112e-17
209 2 49.3565 187.238 -5.55112e-17
210 1 90.6739 110.411 -5.55112e-17
211 1 197.786 43.2151 -5.55112e-17
212 1 182.9 18.8427 -5.55112e-17
213 1 137.964 3.73459 -5.55112e-17
214 2 91.4731 157.229 -5.55112e-17
215 1 32.7065 185.359 -5.55112e-17
216 1 18.5501 1.22924 -5.55112e-17
217 1 139.688 53.7228 -5.55112e-17
218 2 147.799 26.8269 -5.55112e-17
219 2 31.2674 128.507 -5.55112e-17
220 1 169.784 80.3839 -5.55112e-17
221 2 216.771 128.364 -5.55112e-17
222 1 26.7929 203.748 -5.55112e-17
223 1 61.1865 134.115 -5.55112e-17
224 2 96.2959 181.12 -5.55112e-17
225 2 151.638 40.8479 -5.55112e-17
226 1 165.319 158.838 -5.55112e-17
227 2 101.306 10.3804 -5.55112e-17
228 2 212.14 155.2 -5.55112e-17
229 1 179.275 130.19 -5.55112e-17
230 1 17.373 72.8964 -5.55112e-17
231 2 77.3426 78.7464 -5.55112e-17
232 1 160.158 55.4151 -5.55112e-17
233 2 94.3407 197.058 -5.55112e-17
234 1 47.0511 1.68296 -5.55112e-17
235 1 52.615 212.432 -5.55112e-17
236 2 18.7681 14.03 -5.55112e-17
237 2 105.535 209.177 -5.55112e-17
238 2 49.5705 123.804 -5.55112e-17
239 1 190.967 148.633 -5.55112e-17
240 1 170.275 203.914 -5.55112e-17
241 2 143.823 102.508 -5.55112e-17
242 1 73.5309 209.432 -5.55112e-17
243 2 191.68 23.5042 -5.55112e-17
244 2 137.012 114.02 -5.55112e-17
245 1 204.148 65.8736 -5.55112e-17
246 2 19.7778 34.3196 -5.55112e-17
247 2 39.9155 41.3813 -5.55112e-17
248 1 163.51 100.515 -5.55112e-17
249 1 99.8934 135.198 -5.55112e-17
250 1 40.9619 116.159 -5.55112e-17
251 2 168.705 91.4146 -5.55112e-17
252 1 72.7271 48.9512 -5.55112e-17
253 2 103.363 188.242 -5.55112e-17
254 2 201.76 67.9699 -5.55112e-17
255 2 173.394 58.0028 -5.55112e-17
256 1 22.0079 75.1195 -5.55112e-17
257 2 180.241 113.528 -5.55112e-17
258 1 103.537 86.4332 -5.55112e-17
259 2 10.3071 182.144 -5.55112e-17
260 1 57.6378 23.5231 -5.55112e-17
261 2 90.9441 100.595 -5.55112e-17
262 2 50.5749 87.095 -5.55112e-17
263 2 206.58 3.56615 -5.55112e-17
264 1 207.78 157.155 -5.55112e-17
265 1 199.509 17.3769 -5.55112e-17
266 1 64.7733 129.449 -5.55112e-17
267 2 107.213 128.811 -5.55112e-17
268 1 46.4014 45.1039 -5.55112e-17
269 2 199.462 41.1813 -5.55112e-17
270 2 209.364 63.9092 -5.55112e-17
271 2 165.647 98.6634 -5.55112e-17
272 1 67.1719 173.86 -5.55112e-17
273 1 46.448 142.833 -5.55112e-17
274 1 132.606 22.8835 -5.55112e-17
275 1 132.012 13.3157 -5.55112e-17
276 1 175.891 141.179 -5.55112e-17
277 1 33.6321 210.911 -5.55112e-17
278 2 184.397 69.2385 -5.55112e-17
279 2 172.812 151.717 -5.55112e-17
280 1 44.7435 16.7775 -5.55112e-17
281 2 72.6152 14.7575 -5.55112e-17
282 2 176.008 19.4021 -5.55112e-17
283 2 60.7928 7.05188 -5.55112e-17
284 1 86.9139 207.317 -5.55112e-17
285 1 94.0957 108.231 -5.55112e-17
286 2 123.941 180.269 -5.55112e-17
287 2 207.004 138.499 -5.55112e-17
288 1 43.5547 186.236 -5.55112e-17
289 2 121.009 48.6594 -5.55112e-17
290 1 205.256 58.603 -5.55112e-17
291 2 120.556 149.703 -5.55112e-17
292 1 162.867 111.969 -5.55112e-17
293 1 104.178 116.989 -5.55112e-17
294 1 157.615 85.0396 -5.55112e-17
295 2 168.546 217.52 -5.55112e-17
296 1 49.3835 38.2407 -5.55112e-17
297 1 125.706 198.075 -5.55112e-17
298 2 59.4621 174.831 -5.55112e-17
299 1 145.417 165.339 -5.55112e-17
300 2 165.361 63.8921 -5.55112e-17
301 2 160.647 119.589 -5.55112e-17
302 2 181.471 195.418 -5.55112e-17
303 1 71.5099 12.4357 -5.55112e-17
304 1 168.896 29.1369 -5.55112e-17
305 1 181.243 73.057 -5.55112e-17
306 2 189.858 100.264 -5.55112e-17
307 2 56.5697 186.366 -5.55112e-17
308 2 67.0648 192.294 -5.55112e-17
309 1 176.96 52.3167 -5.55112e-17
310 1 143.454 30.0145 -5.55112e-17
311 1 134.826 145.11 -5.55112e-17
312 2 160.837 177.019 -5.55112e-17
313 2 25.0499 195.266 -5.55112e-17
314 1 155.886 69.1342 -5.55112e-17
315 2 171.002 24.5538 -5.55112e-17
316 1 193.194 132.145 -5.55112e-17
317 1 43.7431 10.6026 -5.55112e-17
318 1 44.3956 169.379 -5.55112e-17
319 2 132.13 143.619 -5.55112e-17
320 1 25.9612 162.193 -5.55112e-17
321 1 208.306 212.412 -5.55112e-17
322 1 182.593 133.994 -5.55112e-17
323 2 134.452 64.8175 -5.55112e-17
324 2 96.9842 197.538 -5.55112e-17
325 2 61.417 74.5772 -5.55112e-17
326 1 94.1753 93.5526 -5.55112e-17
327 1 197.422 193.358 -5.55112e-17
328 2 76.3831 2.8771 -5.55112e-17
329 2 42.3585 193.517 -5.55112e-17
330 2 18.3168 178.459 -5.55112e-17
331 2 21.895 54.4281 -5.55112e-17
332 2 64.2372 169.517 -5.55112e-17
333 2 154.976 201.489 -5.55112e-17
334 2 160.213 85.8423 -5.55112e-17
335 1 1.23028 216.931 -5.55112e-17
336 2 91.5801 141.331 -5.55112e-17
337 2 97.2932 145.655 -5.55112e-17
338 1 43.6838 212.691 -5.55112e-17
339 2 203.659 145.113 -5.55112e-17
340 2 118.896 67.0365 -5.55112e-17
341 2 45.6702 90.8149 -5.55112e-17
342 2 210.889 55.3401 -5.55112e-17
343 2 54.9445 12.5662 -5.55112e-17
344 1 191.151 108.297 -5.55112e-17
345 2 32.6345 48.723 -5.55112e-17
346 2 22.0573 91.4401 -5.55112e-17
347 1 218.196 172.38 -5.55112e-17
348 1 74.7483 168.027 -5.55112e-17
349 2 177.524 181.004 -5.55112e-17
350 2 103.573 218.876 -5.55112e-17
351 1 22.8641 183.904 -5.55112e-17
352 1 106.54 170.808 -5.55112e-17
353 2 64.8051 98.6188 -5.55112e-17
354 2 36.2604 10.1248 -5.55112e-17
355 1 137.741 30.727 -5.55112e-17
356 2 90.6942 121.965 -5.55112e-17
357 1 33.6546 112.536 -5.55112e-17
358 1 169.459 161.029 -5.55112e-17
359 1 90.5565 151.072 -5.55112e-17
360 1 55.9904 42.5588 -5.55112e-17
361 2 200.024 133.963 -5.55112e-17
362 2 98.8563 67.849 -5.55112e-17
363 1 203.786 17.8199 -5.55112e-17
364 2 116.146 62.8392 -5.55112e-17
365 1 203.186 70.2124 -5.55112e-17
366 1 158.321 76.9197 -5.55112e-17
367 1 70.459 187.92 -5.55112e-17
368 1 114.138 164.888 -5.55112e-17
369 2 90.1397 12.1866 -5.55112e-17
370 1 218.341 159.329 -5.55112e-17
371 2 134.045 197.824 -5.55112e-17
372 1 5.04964 141.492 -5.55112e-17
373 2 94.9202 0.919138 -5.55112e-17
374 2 111.635 71.2447 -5.55112e-17
375 1 123.522 169.585 -5.55112e-17
376 1 26.3138 20.9392 -5.55112e-17
377 2 130.489 94.2096 -5.55112e-17
378 2 194.378 199.762 -5.55112e-17
379 2 111.759 130.243 -5.55112e-17
380 1 171.166 16.207 -5.55112e-17
381 1 179.854 105.216 -5.55112e-17
382 1 218.999 111.726 -5.55112e-17
383 1 184.427 66.6439 -5.55112e-17
384 2 154.04 123.07 -5.55112e-17
385 1 113.308 38.3437 -5.55112e-17
386 2 38.9099 117.835 -5.55112e-17
387 1 187.292 19.5793 -5.55112e-17
388 1 160.418 58.4048 -5.55112e-17
389 2 47.2035 188.996 -5.55112e-17
390 1 135.737 122.524 -5.55112e-17
391 1 103.568 196.905 -5.55112e-17
392 2 79.8555 92.9008 -5.55112e-17
393 2 93.3118 210.865 -5.55112e-17
394 1 56.8221 67.9533 -5.55112e-17
395 1 203.495 97.081 -5.55112e-17
396 2 73.6449 146.3 -5.55112e-17
397 1 207.385 201.027 -5.55112e-17
398 2 146.367 181.241 -5.55112e-17
399 2 207.634 86.8412 -5.55112e-17
400 2 158.25 213.202 -5.55112e-17
401 2 174.385 146.236 -5.55112e-17
402 1 53.4294 117.757 -5.55112e-17
403 1 163.24 154.068 -5.55112e-17
404 2 7.27429 62.0215 -5.55112e-17
405 1 206.573 176.977 -5.55112e-17
406 2 97.3995 83.2378 -5.55112e-17
407 1 169.479 4.44702 -5.55112e-17
408 1 94.8819 83.7709 -5.55112e-17
409 2 117.035 132.082 -5.55112e-17
410 2 191.133 72.1682 -5.55112e-17
411 1 154.248 150.418 -5.55112e-17
412 1 37.4475 65.3423 -5.55112e-17
413 1 127.907 117.269 -5.55112e-17
414 2 195.659 61.8589 -5.55112e-17
415 1 7.5435 101.961 -5.55112e-17
416 1 67.1198 16.639 -5.55112e-17
417 2 103.529 94.6065 -5.55112e-17
418 2 110.445 173.335 -5.55112e-17
419 2 26.2839 8.71005 -5.55112e-17
420 2 19.4738 46.9098 -5.55112e-17
421 1 124.996 98.7952 -5.55112e-17
422 1 20.3427 107.937 -5.55112e-17
423 2 143.159 70.6857 -5.55112e-17
424 2 142.932 24.8188 -5.55112e-17
425 2 54.003 94.8309 -5.55112e-17
426 1 127.006 7.02003 -5.55112e-17
427 2 89.1682 48.1248 -5.55112e-17
428 1 57.0096 14.2136 -5.55112e-17
429 2 125.975 93.8506 -5.55112e-17
430 2 55.5305 207.932 -5.55112e-17
431 1 97.0386 111.728 -5.55112e-17
432 2 188.406 181.078 -5.55112e-17
433 1 184.222 147.284 -5.55112e-17
434 1 206.659 155.251 -5.55112e-17
435 1 135.943 89.0248 -5.55112e-17
436 2 0.0807969 199.592 -5.55112e-17
437 2 37.1684 34.1663 -5.55112e-17
438 2 87.4071 187.26 -5.55112e-17
439 2 114.337 125.094 -5.55112e-17
440 2 209.299 114.674 -5.55112e-17
441 1 187.037 143.455 -5.55112e-17
442 1 65.0058 64.9294 -5.55112e-17
443 2 48.8943 198.415 -5.55112e-17
444 1 25.4261 152.081 -5.55112e-17
445 1 170.603 126.879 -5.55112e-17
446 2 97.9703 140.638 -5.55112e-17
447 2 0.528534 177.727 -5.55112e-17
448 2 30.1224 186.526 -5.55112e-17
449 1 134.311 195.084 -5.55112e-17
450 1 161.081 11.8764 -5.55112e-17
451 1 31.9144 191.124 -5.55112e-17
452 2 58.7162 47.6035 -5.55112e-17
453 1 83.2973 203.763 -5.55112e-17
454 1 201.807 123.322 -5.55112e-17
455 2 86.9817 184.399 -5.55112e-17
456 1 25.7881 212.761 -5.55112e-17
457 2 73.1415 133.292 -5.55112e-17
458 2 110.214 10.93 -5.55112e-17
459 2 24.3245 122.016 -5.55112e-17
460 1 82.2806 98.2766 -5.55112e-17
461 1 90.7491 210.113 -5.55112e-17
462 1 42.8189 217.878 -5.55112e-17
463 2 118.203 138.787 -5.55112e-17
464 2 135.639 4.20171 -5.55112e-17
465 1 73.3639 165.826 -5.55112e-17
466 2 195.753 80.1422 -5.55112e-17
467 2 61.9977 121.98 -5.55112e-17
468 2 74.1028 181.719 -5.55112e-17
469 2 197.051 125.639 -5.55112e-17
470 2 58.1863 70.6794 -5.55112e-17
471 2 146.578 49.8314 -5.55112e-17
472 2 139.472 128.455 -5.55112e-17
473 2 135.825 161.356 -5.55112e-17
474 2 49.3678 83.9416 -5.55112e-17
475 1 201.561 217.79 -5.55112e-17
476 2 160.149 17.5447 -5.55112e-17
477 1 201.557 164.294 -5.55112e-17
478 1 9.58889 29.8865 -5.55112e-17
479 2 31.0918 144.498 -5.55112e-17
480 1 205.507 1.24024 -5.55112e-17
481 1 19.7169 11.463 -5.55112e-17
482 2 191.277 196.29 -5.55112e-17
483 1 124.155 134.727 -5.55112e-17
484 1 37.7291 14.6975 -5.55112e-17
485 2 160.498 46.3275 -5.55112e-17
486 1 64.5095 179.686 -5.55112e-17
487 1 100.219 139.599 -5.55112e-17
488 1 22.0802 40.6458 -5.55112e-17
489 1 69.1035 190.127 -5.55112e-17
490 1 199.519 139.196 -5.55112e-17
491 1 16.3011 156.304 -5.55112e-17
492 2 137.154 19.6349 -5.55112e-17
493 1 206.79 114.442 -5.55112e-17
494 2 160.435 197.935 -5.55112e-17
495 1 29.5001 153.319 -5.55112e-17
496 1 89.4668 164.158 -5.55112e-17
497 1 69.7629 143.322 -5.55112e-17
498 2 102.146 72.0192 -5.55112e-17
499 2 140.219 47.5886 -5.55112e-17
500 2 205.063 94.9078 -5.55112e-17
501 2 73.3443 187.18 -5.55112e-17
502 2 85.9588 91.5444 -5.55112e-17
503 2 161.111 88.7811 -5.55112e-17
504 2 91.5126 97.6923 -5.55112e-17
505 2 104.106 137.146 -5.55112e-17
506 1 83.0743 79.594 -5.55112e-17
507 2 194.612 167.99 -5.55112e-17
508 1 209.74 23.3966 -5.55112e-17
509 1 121.515 17.041 -5.55112e-17
510 1 153.49 58.6117 -5.55112e-17
511 2 33.2658 74.1631 -5.55112e-17
512 1 41.6582 127.106 -5.55112e-17
513 2 23.8879 124.815 -5.55112e-17
514 2 69.1231 67.4795 -5.55112e-17
515 1 145.052 122.228 -5.55112e-17
516 2 58.4031 78.796 -5.55112e-17
517 1 48.7745 102.784 -5.55112e-17
518 2 172.532 0.147525 -5.55112e-17
519 1 208.358 181.538 -5.55112e-17
520 2 22.3085 192.582 -5.55112e-17
521 2 170.648 139.585 -5.55112e-17
522 1 101.075 179.849 -5.55112e-17
523 1 117.718 114.14 -5.55112e-17
524 2 109.205 32.5473 -5.55112e-17
525 2 166.991 161.062 -5.55112e-17
526 2 81.5341 17.4359 -5.55112e-17
527 1 6.20386 206.864 -5.55112e-17
528 1 212.291 68.7561 -5.55112e-17
529 2 65.694 25.7794 -5.55112e-17
530 2 15.3538 178.983 -5.55112e-17
531 2 185.558 74.6561 -5.55112e-17
532 1 13.7686 186.572 -5.55112e-17
533 2 11.4846 73.2589 -5.55112e-17
534 1 43.6376 160.462 -5.55112e-17
535 1 121.219 91.2806 -5.55112e-17
536 2 12.5231 179.773 -5.55112e-17
537 1 66.7761 76.03 -5.55112e-17
538 1 174.106 17.672 -5.55112e-17
539 2 120.135 41.9168 -5.55112e-17
540 1 80.2474 58.2548 -5.55112e-17
541 1 2.40822 16.3355 -5.55112e-17
542 1 43.0452 34.3939 -5.55112e-17
543 2 145.833 80.3749 -5.55112e-17
544 1 97.5997 57.2047 -5.55112e-17
545 1 143.274 167.129 -5.55112e-17
546 2 13.459 135.454 -5.55112e-17
547 1 68.3679 37.6841 -5.55112e-17
548 1 82.5982 62.6758 -5.55112e-17
549 2 194.274 155.253 -5.55112e-17
550 2 49.1934 91.9136 -5.55112e-17
551 2 141.584 126.068 -5.55112e-17
552 1 21.8025 61.2256 -5.55112e-17
553 2 108.235 125.728 -5.55112e-17
554 2 97.2899 191.846 -5.55112e-17
555 2 41.0446 82.8443 -5.55112e-17
556 1 116.838 129.326 -5.55112e-17
557 1 102.38 49.775 -5.55112e-17
558 1 205.168 131.355 -5.55112e-17
559 2 146.395 190.645 -5.55112e-17
560 2 30.6696 157.771 -5.55112e-17
561 2 49.0916 155.395 -5.55112e-17
562 2 140.263 10.0661 -5.55112e-17
563 1 31.0252 1.33297 -5.55112e-17
564 2 202.135 140.501 -5.55112e-17
565 2 102.311 43.1484 -5.55112e-17
566 2 213.86 55.3091 -5.55112e-17
567 1 31.6921 177.82 -5.55112e-17
568 1 119.859 120.363 -5.55112e-17
569 2 215.552 147.715 -5.55112e-17
570 2 176.283 216.173 -5.55112e-17
571 2 110.909 214.393 -5.55112e-17
572 1 173.71 64.2876 -5.55112e-17
573 2 152.552 186.124 -5.55112e-17
574 2 59.4215 147.722 -5.55112e-17
575 1 165.984 101.047 -5.55112e-17
576 1 46.1408 211.998 -5.55112e-17
577 1 131.1 80.6617 -5.55112e-17
578 1 174.895 41.8139 -5.55112e-17
579 2 133.159 92.3202 -5.55112e-17
580 1 86.151 197.165 -5.55112e-17
581 1 192.304 206.874 -5.55112e-17
582 2 77.4252 140.939 -5.55112e-17
583 2 106.566 34.4632 -5.55112e-17
584 2 129.297 210.765 -5.55112e-17
585 1 141.05 208.141 -5.55112e-17
586 1 201.617 42.7459 -5.55112e-17
587 1 19.5808 209.615 -5.55112e-17
588 2 15.6541 205.619 -5.55112e-17
589 1 95.7645 136.95 -5.55112e-17
590 2 173.401 97.1202 -5.55112e-17
591 2 72.0569 111.82 -5.55112e-17
592 1 92.0033 163.744 -5.55112e-17
593 1 101.983 151.917 -5.55112e-17
594 1 22.7548 119.73 -5.55112e-17
595 1 185.145 137.67 -5.55112e-17
596 2 114.165 153.35 -5.55112e-17
597 2 84.0991 46.7079 -5.55112e-17
598 2 126.118 30.7034 -5.55112e-17
599 2 7.05049 191.747 -5.55112e-17
600 2 103.54 74.9158 -5.55112e-17
601 1 174.12 2.31121 -5.55112e-17
602 1 200.114 22.2307 -5.55112e-17
603 2 126.669 193.597 -5.55112e-17
604 1 126.277 89.4053 -5.55112e-17
605 2 193.151 63.4919 -5.55112e-17
606 2 175.998 90.9936 -5.55112e-17
607 2 95.6185 129.629 -5.55112e-17
608 2 191.041 201.353 -5.55112e-17
609 1 23.8366 211.432 -5.55112e-17
610 2 45.6976 95.578 -5.55112e-17
611 1 194.201 170.777 -5.55112e-17
612 1 44.6421 108.212 -5.55112e-17
613 2 196.957 217.803 -5.55112e-17
614 1 167.001 54.9585 -5.55112e-17
615 1 59.9932 96.853 -5.55112e-17
616 2 163.309 179.104 -5.55112e-17
617 1 212.677 151.183 -5.55112e-17
618 1 165.838 153.971 -5.55112e-17
619 1 144.353 127.765 -5.55112e-17
620 2 65.8345 216.256 -5.55112e-17
621 2 138.841 173.879 -5.55112e-17
622 2 191.114 204.615 -5.55112e-17
623 2 94.149 39.7795 -5.55112e-17
624 1 129.912 3.76164 -5.55112e-17
625 2 52.8257 202.889 -5.55112e-17
626 1 28.7545 83.3611 -5.55112e-17
627 2 161.436 152.247 -5.55112e-17
628 1 180.305 44.2267 -5.55112e-17
629 1 197.293 166.929 -5.55112e-17
630 2 50.6104 106.843 -5.55112e-17
631 2 191.863 48.3232 -5.55112e-17
632 2 98.8937 20.5997 -5.55112e-17
633 2 93.2523 28.4699 -5.55112e-17
634 2 4.41381 73.3277 -5.55112e-17
635 2 202.781 20.7111 -5.55112e-17
636 1 81.971 174.839 -5.55112e-17
637 1 137.269 127.21 -5.55112e-17
638 1 123.388 74.8369 -5.55112e-17
639 2 113.774 145.977 -5.55112e-17
640 2 61.8802 30.5314 -5.55112e-17
641 1 88.2628 198.69 -5.55112e-17
642 2 69.8553 2.53262 -5.55112e-17
643 1 112.64 210.289 -5.55112e-17
644 2 25.7942 184.183 -5.55112e-17
645 2 1.67779 211.718 -5.55112e-17
646 1 101.513 186.37 -5.55112e-17
647 2 195.539 37.797 -5.55112e-17
648 2 29.6326 171.1 -5.55112e-17
649 1 161.29 95.8914 -5.55112e-17
650 1 66.5165 189.541 -5.55112e-17
651 1 83.5047 216.69 -5.55112e-17
652 2 101.315 109.811 -5.55112e-17
653 2 158.104 132.646 -5.55112e-17
654 1 88.4924 179.592 -5.55112e-17
655 1 128.433 198.127 -5.55112e-17
656 1 161.06 193.101 -5.55112e-17
657 1 35.6184 160.184 -5.55112e-17
658 2 46.9037 150.609 -5.55112e-17
659 2 160.341 43.5998 -5.55112e-17
660 1 212.215 57.275 -5.55112e-17
661 2 177.65 213.529 -5.55112e-17
662 2 54.2535 83.7877 -5.55112e-17
663 1 111.211 30.8615 -5.55112e-17
664 1 18.9475 186.028 -5.55112e-17
665 1 174.59 52.9273 -5.55112e-17
666 1 64.5777 52.5012 -5.55112e-17
667 1 145.15 198.885 -5.55112e-17
668 1 160.987 123.526 -5.55112e-17
669 1 26.072 56.7958 -5.55112e-17
670 2 81.6288 130.72 -5.55112e-17
671 1 2.23241 206.046 -5.55112e-17
672 1 208.354 56.4269 -5.55112e-17
673 2 57.2905 108.272 -5.55112e-17
674 2 61.4242 15.4599 -5.55112e-17
675 2 77.6248 154.58 -5.55112e-17
676 1 145.764 42.0644 -5.55112e-17
677 2 67.5815 129.85 -5.55112e-17
678 1 48.5295 211.28 -5.55112e-17
679 1 140.568 199.875 -5.55112e-17
680 2 126.784 66.1752 -5.55112e-17
681 1 133.225 110.055 -5.55112e-17
682 1 42.942 80.6349 -5.55112e-17
683 2 193.487 85.6047 -5.55112e-17
684 1 1.4833 39.9507 -5.55112e-17
685 1 53.5919 76.6853 -5.55112e-17
686 1 6.48653 94.3597 -5.55112e-17
687 1 147.313 202.453 -5.55112e-17
688 1 106.381 104.351 -5.55112e-17
689 2 72.7668 114.47 -5.55112e-17
690 1 210.652 127.321 -5.55112e-17
691 2 25.1338 79.5633 -5.55112e-17
692 2 128.684 143.569 -5.55112e-17
693 1 85.255 146.418 -5.55112e-17
694 2 147.155 21.1401 -5.55112e-17
695 2 28.0838 118.627 -5.55112e-17
696 2 123.804 190.089 -5.55112e-17
697 1 80.5226 133.115 -5.55112e-17
698 2 46.6224 19.0028 -5.55112e-17
699 1 99.925 69.9019 -5.55112e-17
700 2 148.411 89.774 -5.55112e-17
701 2 97.6963 148.753 -5.55112e-17
702 1 9.21296 120.684 -5.55112e-17
703 1 3.5817 18.4907 -5.55112e-17
704 1 211.197 152.929 -5.55112e-17
705 1 147.414 95.3351 -5.55112e-17
706 1 86.0376 203.205 -5.55112e-17
707 1 97.9283 44.7931 -5.55112e-17
708 2 96.6844 12.2191 -5.55112e-17
709 1 90.4583 2.12459 -5.55112e-17
710 2 64.1997 185.422 -5.55112e-17
711 2 41.0111 136.173 -5.55112e-17
712 1 42.8661 91.0161 -5.55112e-17
713 1 67.9842 84.3242 -5.55112e-17
714 2 86.9617 71.7704 -5.55112e-17
715 2 151.46 27.1181 -5.55112e-17
716 1 100.351 141.838 -5.55112e-17
717 1 10.26 96.8691 -5.55112e-17
718 2 127.675 106.034 -5.55112e-17
719 1 20.7751 44.5982 -5.55112e-17
720 2 85.5488 212.215 -5.55112e-17
721 2 113.293 195.678 -5.55112e-17
722 2 92.5062 51.8013 -5.55112e-17
723 2 202.005 34.2798 -5.55112e-17
724 2 192.792 165.387 -5.55112e-17
725 2 43.7007 19.3905 -5.55112e-17
726 2 91.1078 127.183 -5.55112e-17
727 2 150.001 61.8785 -5.55112e-17
728 1 211.378 202.834 -5.55112e-17
729 2 24.3225 102.38 -5.55112e-17
730 2 89.4999 103.238 -5.55112e-17
731 1 116.024 85.8666 -5.55112e-17
732 2 88.3485 172.505 -5.55112e-17
733 2 91.8701 93.7914 -5.55112e-17
734 2 207.093 45.362 -5.55112e-17
735 2 66.8783 62.1825 -5.55112e-17
736 1 113.063 50.8945 -5.55112e-17
737 2 15.2927 143.942 -5.55112e-17
738 2 141.245 151.977 -5.55112e-17
739 2 132.848 43.5993 -5.55112e-17
740 2 215.942 82.4829 -5.55112e-17
741 2 193.241 184.061 -5.55112e-17
742 1 190.483 208.025 -5.55112e-17
743 2 60.2836 45.6466 -5.55112e-17
744 1 57.9069 169.639 -5.55112e-17
745 2 63.1839 50.4293 -5.55112e-17
746 1 15.9507 117.707 -5.55112e-17
747 1 5.43411 167.612 -5.55112e-17
748 2 133.107 208.051 -5.55112e-17
749 1 77.3784 50.8023 -5.55112e-17
750 1 17.921 136.984 -5.55112e-17
751 1 17.6904 77.9901 -5.55112e-17
752 2 194.625 88.6861 -5.55112e-17
753 1 80.9337 94.9024 -5.55112e-17
754 2 59.7353 62.8168 -5.55112e-17
755 1 90.7201 165.803 -5.55112e-17
756 2 35.8223 119.243 -5.55112e-17
757 1 130.895 83.2914 -5.55112e-17
758 2 172.218 199.688 -5.55112e-17
759 1 160.155 83.1978 -5.55112e-17
760 1 148.272 130.547 -5.55112e-17
761 2 43.9091 183.559 -5.55112e-17
762 1 149.498 145.449 -5.55112e-17
763 2 13.5888 36.2213 -5.55112e-17
764 2 74.1952 29.2598 -5.55112e-17
765 1 174.722 198.791 -5.55112e-17
766 2 137.522 64.7426 -5.55112e-17
767 2 25.4487 149.527 -5.55112e-17
768 2 182.473 48.4267 -5.55112e-17
769 2 72.2974 174.009 -5.55112e-17
770 1 98.068 210.37 -5.55112e-17
771 1 33.1561 118.046 -5.55112e-17
772 1 212.085 53.2206 -5.55112e-17
773 2 194.728 17.3985 -5.55112e-17
774 1 35.6435 12.7654 -5.55112e-17
775 1 128.712 50.3179 -5.55112e-17
776 2 113.521 215.674 -5.55112e-17
777 2 190.771 35.6697 -5.55112e-17
778 1 196.602 71.6622 -5.55112e-17
779 1 192.698 158.175 -5.55112e-17
780 2 147.065 115.541 -5.55112e-17
781 1 140.204 106.268 -5.55112e-17
782 2 63.0232 27.4544 -5.55112e-17
783 1 167.421 133.216 -5.55112e-17
784 2 2.46005 111.23 -5.55112e-17
785 1 216.842 192.979 -5.55112e-17
786 1 116.995 22.9303 -5.55112e-17
787 2 119.299 154.512 -5.55112e-17
788 2 89.5483 190.967 -5.55112e-17
789 2 108.156 154.328 -5.55112e-17
790 2 54.9529 193.205 -5.55112e-17
791 2 182.022 210.28 -5.55112e-17
792 1 206.274 51.1052 -5.55112e-17
793 1 29.7234 210.038 -5.55112e-17
794 2 78.2271 67.813 -5.55112e-17
795 2 77.662 211.247 -5.55112e-17
796 1 186.239 58.4092 -5.55112e-17
797 1 80.8183 143.731 -5.55112e-17
798 1 96.1578 59.0442 -5.55112e-17
799 2 2.54759 108.202 -5.55112e-17
800 1 147.109 186.129 -5.55112e-17
801 2 165.969 199.831 -5.55112e-17
802 1 61.2274 0.438541 -5.55112e-17
803 1 67.8337 106.18 -5.55112e-17
804 1 75.1933 44.4596 -5.55112e-17
805 2 149.558 197.544 -5.55112e-17
806 2 118.973 202.046 -5.55112e-17
807 2 105.562 141.957 -5.55112e-17
808 2 7.77522 129.593 -5.55112e-17
809 1 183.664 91.8321 -5.55112e-17
810 2 139.479 108.839 -5.55112e-17
811 2 217.995 213.519 -5.55112e-17
812 1 146.154 97.7033 -5.55112e-17
813 1 159.169 90.4865 -5.55112e-17
814 1 128.289 103.436 -5.55112e-17
815 1 110.115 205.499 -5.55112e-17
816 1 53.0247 32.4885 -5.55112e-17
817 2 45.9853 27.8529 -5.55112e-17
818 2 196.587 171.964 -5.55112e-17
819 2 50.2891 14.5932 -5.55112e-17
820 1 124.936 147.036 -5.55112e-17
821 1 150.802 75.436 -5.55112e-17
822 2 110.482 169.144 -5.55112e-17
823 1 88.3705 201.933 -5.55112e-17
824 1 52.882 101.627 -5.55112e-17
825 1 61.285 200.751 -5.55112e-17
826 2 145.085 8.7307 -5.55112e-17
827 2 204.646 53.3915 -5.55112e-17
828 1 163.865 49.5892 -5.55112e-17
829 2 27.665 181.984 -5.55112e-17
830 1 119.809 183.515 -5.55112e-17
831 2 206.122 16.9186 -5.55112e-17
832 2 51.9639 156.084 -5.55112e-17
833 2 76.9234 180.619 -5.55112e-17
834 1 62.3723 115.281 -5.55112e-17
835 1 17.9819 39.3817 -5.55112e-17
836 1 21.1655 160.846 -5.55112e-17
837 2 16.6062 104.431 -5.55112e-17
838 2 44.6332 207.847 -5.55112e-17
839 1 120.735 110.314 -5.55112e-17
840 2 38.3225 12.0609 -5.55112e-17
841 2 28.6692 145.88 -5.55112e-17
842 1 29.571 2.95603 -5.55112e-17
843 1 65.6275 34.0832 -5.55112e-17
844 2 147.016 153.823 -5.55112e-17
845 1 175.9 88.03 -5.55112e-17
846 2 108.522 118.25 -5.55112e-17
847 1 196.598 24.325 -5.55112e-17
848 2 176.326 183.921 -5.55112e-17
849 1 104.242 161.402 -5.55112e-17
850 2 85.3253 178.268 -5.55112e-17
851 2 20.5341 165.68 -5.55112e-17
852 1 151.991 34.76 -5.55112e-17
853 1 118.847 95.7441 -5.55112e-17
854 2 215.811 205.783 -5.55112e-17
855 2 97.4754 40.0472 -5.55112e-17
856 1 194.741 102.042 -5.55112e-17