ITEM: TIMESTEP
0
ITEM: NUMBER OF ATOMS
7200
ITEM: BOX BOUNDS xy xz yz pp pp pp
0.0000000000000000e+00 2.1900000000000000e+02 0.0000000000000000e+00
0.0000000000000000e+00 2.1900000000000000e+02 0.0000000000000000e+00
-3.6499999999999999e-01 3.6499999999999999e-01 0.0000000000000000e+00
ITEM: ATOMS id type x y z
1 1 62.6208 116.658 -5.55112e-17
2 2 133.083 23.0903 -5.55112e-17
3 2 182.925 60.3541 -5.55112e-17
4 1 83.9275 4.13928 -5.55112e-17
5 1 207.353 19.1545 -5.55112e-17
6 1 170.792 26.7189 -5.55112e-17
7 2 55.5836 45.1765 -5.55112e-17
8 2 78.0611 124.582 -5.55112e-17
9 1 37.9941 34.6227 -5.55112e-17
10 2 140.019 33.2469 -5.55112e-17
11 2 204.408 38.3691 -5.55112e-17
12 1 138.955 186.638 -5.55112e-17
13 2 170.641 194.671 -5.55112e-17
14 1 183.693 144.435 -5.55112e-17
15 2 42.347 182.788 -5.55112e-17
16 2 146.113 114.83 -5.55112e-17
17 1 91.1807 158.71 -5.55112e-17
18 2 7.85707 88.3979 -5.55112e-17
19 1 170.337 54.0559 -5.55112e-17
20 1 60.7991 39.6026 -5.55112e-17
21 1 171.3 192.084 -5.55112e-17
22 2 64.5926 48.3534 -5.55112e-17
23 2 182.256 185.866 -5.55112e-17
24 2 61.118 173.699 -5.55112e-17
25 2 134.462 186.834 -5.55112e-17
26 2 12.9484 142.643 -5.55112e-17
27 1 54.977 163.132 -5.55112e-17
28 2 187.713 48.9584 -5.55112e-17
29 2 197.157 186.332 -5.55112e-17
30 2 135.729 1.16059 -5.55112e-17
31 2 28.2533 183.642 -5.55112e-17
32 1 175.652 176.553 -5.55112e-17
33 2 152.224 110.613 -5.55112e-17
34 2 7.80952 75.871 -5.55112e-17
35 2 151.201 82.6196 -5.55112e-17
36 1 84.6305 131.549 -5.55112e-17
37 1 152.827 157.897 -5.55112e-17
38 2 216.366 27.9349 -5.55112e-17
39 1 143.614 209.23 -5.55112e-17
40 2 182.252 74.0312 -5.55112e-17
41 1 173.485 78.1189 -5.55112e-17
42 1 139.522 55.8216 -5.55112e-17
43 1 90.5532 123.005 -5.55112e-17
44 1 134.317 30.0919 -5.55112e-17
45 2 167.889 57.9267 -5.55112e-17
46 1 134.765 123.145 -5.55112e-17
47 2 90.3651 193.184 -5.55112e-17
48 2 119.649 60.8179 -5.55112e-17
49 1 169.946 202.65 -5.55112e-17
50 2 69.5675 31.2166 -5.55112e-17
51 1 125.601 164.948 -5.55112e-17
52 1 67.8638 52.833 -5.55112e-17
53 2 139.203 36.0393 -5.55112e-17
54 1 180.621 102.584 -5.55112e-17
55 2 49.4236 81.9109 -5.55112e-17
56 1 126.085 146.977 -5.55112e-17
57 2 127.231 97.9156 -5.55112e-17
58 1 185.953 198.189 -5.55112e-17
59 1 172.433 139.503 -5.55112e-17
60 2 79.8568 85.7834 -5.55112e-17
61 1 103.004 91.8457 -5.55112e-17
62 1 145.034 137.917 -5.55112e-17
63 2 28.6104 98.671 -5.55112e-17
64 1 187.467 137.293 -5.55112e-17
65 2 180.388 9.00629 -5.55112e-17
66 2 34.3935 102.699 -5.55112e-17
67 2 213.306 126.522 -5.55112e-17
68 1 38.0895 10.4872 -5.55112e-17
69 2 152.9 1.40559 -5.55112e-17
70 1 124.959 99.8914 -5.55112e-17
71 1 8.47798 50.2123 -5.55112e-17
72 2 131.687 7.76004 -5.55112e-17
73 2 170.963 106.103 -5.55112e-17
74 2 100.547 179.213 -5.55112e-17
75 1 4.2661 147.723 -5.55112e-17
76 2 182.081 30.6526 -5.55112e-17
77 2 32.8682 99.6148 -5.55112e-17
78 1 97.7437 32.192 -5.55112e-17
79 2 200.337 203.54 -5.55112e-17
80 1 77.3949 78.1468 -5.55112e-17
81 1 91.5348 104.532 -5.55112e-17
82 1 166.947 24.8596 -5.55112e-17
83 1 129.101 14.8286 -5.55112e-17
84 2 199.708 24.5383 -5.55112e-17
85 2 73.0358 165.223 -5.55112e-17
86 2 188.627 51.9847 -5.55112e-17
87 2 113.383 152.938 -5.55112e-17
88 1 195.648 114.564 -5.55112e-17
89 2 50.8831 2.73565 -5.55112e-17
90 2 153.482 118.791 -5.55112e-17
91 2 44.3567 68.4869 -5.55112e-17
92 1 104.859 211.306 -5.55112e-17
93 2 21.2568 24.0614 -5.55112e-17
94 2 97.4236 135.848 -5.55112e-17
95 1 26.2006 112.742 -5.55112e-17
96 2 175.78 136.073 -5.55112e-17
97 2 212.351 12.5402 -5.55112e-17
98 2 92.627 73.6648 -5.55112e-17
99 1 123.037 143.531 -5.55112e-17
100 2 67.8007 169.867 -5.55112e-17
101 1 209.075 70.4129 -5.55112e-17
102 1 48.641 90.2228 -5.55112e-17
103 2 169.847 117.617 -5.55112e-17
104 2 216.837 75.9441 -5.55112e-17
105 1 12.5743 8.42627 -5.55112e-17
106 1 100.482 8.97564 -5.55112e-17
107 1 79.4637 99.5975 -5.55112e-17
108 1 90.6116 128.332 -5.55112e-17
109 2 87.0738 69.4206 -5.55112e-17
110 2 189.892 32.8049 -5.55112e-17
111 1 80.847 201.599 -5.55112e-17
112 2 39.978 156.955 -5.55112e-17
113 1 125.124 25.7822 -5.55112e-17
114 1 142.997 127.253 -5.55112e-17
115 2 193.308 89.3273 -5.55112e-17
116 2 174.752 72.3916 -5.55112e-17
117 1 88.7495 9.23066 -5.55112e-17
118 1 86.2167 161.37 -5.55112e-17
119 2 96.3441 99.6931 -5.55112e-17
120 2 115.401 31.2364 -5.55112e-17
121 1 152.546 95.0895 -5.55112e-17
122 2 139.691 5.46391 -5.55112e-17
123 2 47.9462 150.58 -5.55112e-17
124 1 64.6617 153.512 -5.55112e-17
125 1 197.117 127.033 -5.55112e-17
126 2 77.3448 51.7316 -5.55112e-17
127 2 143.976 196.729 -5.55112e-17
128 1 89.1156 38.724 -5.55112e-17
129 1 18.5464 207.781 -5.55112e-17
130 2 71.6827 91.0567 -5.55112e-17
131 1 158.705 87.641 -5.55112e-17
132 1 49.0773 69.6991 -5.55112e-17
133 1 35.9078 112.62 -5.55112e-17
134 1 98.1326 207.184 -5.55112e-17
135 2 132.334 189.204 -5.55112e-17
136 1 128.64 163.955 -5.55112e-17
137 1 142.105 56.5562 -5.55112e-17
138 2 26.7401 150.577 -5.55112e-17
139 1 214.567 154.451 -5.55112e-17
140 1 168.078 90.156 -5.55112e-17
141 1 183 81.8924 -5.55112e-17
142 1 165.574 68.9619 -5.55112e-17
143 1 39.0006 131.376 -5.55112e-17
144 1 205.452 163.708 -5.55112e-17
145 2 42.0215 197.983 -5.55112e-17
146 1 59.9523 108.988 -5.55112e-17
147 2 39.332 56.8616 -5.55112e-17
148 1 53.0219 40.183 -5.55112e-17
149 1 164.363 133.91 -5.55112e-17
150 2 174.634 181.243 -5.55112e-17
151 1 201.987 31.6754 -5.55112e-17
152 1 1.82943 175.99 -5.55112e-17
153 2 24.3584 187.684 -5.55112e-17
154 1 28.9003 151.441 -5.55112e-17
155 2 85.736 42.4354 -5.55112e-17
156 2 39.4068 128.513 -5.55112e-17
157 2 28.5606 37.2243 -5.55112e-17
158 2 48.0857 110.239 -5.55112e-17
159 2 151.608 120.893 -5.55112e-17
160 2 146.547 89.8939 -5.55112e-17
161 2 158.47 147.955 -5.55112e-17
162 1 201.476 144.464 -5.55112e-17
163 1 94.5147 182.496 -5.55112e-17
164 2 21.318 108.299 -5.55112e-17
165 1 135.427 139.6 -5.55112e-17
166 2 173.05 6.53756 -5.55112e-17
167 1 182.691 19.2267 -5.55112e-17
168 1 104.77 71.6494 -5.55112e-17
169 2 61.2475 82.2156 -5.55112e-17
170 1 90.8055 47.1893 -5.55112e-17
171 1 2.66495 187.37 -5.55112e-17
172 1 126.399 124.396 -5.55112e-17
173 1 216.3 112.672 -5.55112e-17
174 2 186.121 118.831 -5.55112e-17
175 2 139.742 43.3429 -5.55112e-17
176 1 102.531 15.1116 -5.55112e-17
177 2 19.4281 5.55579 -5.55112e-17
178 1 194.876 172.883 -5.55112e-17
179 2 123.553 145.904 -5.55112e-17
180 1 205.851 131.001 -5.55112e-17
181 1 178.957 80.0266 -5.55112e-17
182 1 207.224 210.868 -5.55112e-17
183 1 63.789 148.413 -5.55112e-17
184 2 116.428 159.362 -5.55112e-17
185 2 94.8249 209.295 -5.55112e-17
186 2 109.515 133.754 -5.55112e-17
187 2 196.772 214.777 -5.55112e-17
188 2 35.9192 22.3161 -5.55112e-17
189 1 0.383824 216.759 -5.55112e-17
190 1 182.595 91.8506 -5.55112e-17
191 2 212.946 166.206 -5.55112e-17
192 2 46.4802 217.815 -5.55112e-17
193 1 171.545 68.226 -5.55112e-17
194 1 145.472 200.422 -5.55112e-17
195 2 144.453 91.5482 -5.55112e-17
196 1 71.3828 111.126 -5.55112e-17
197 2 67.3233 203.424 -5.55112e-17
198 2 199.872 115.378 -5.55112e-17
199 2 87.794 155.828 -5.55112e-17
200 2 107.492 194.595 -5.55112e-17
201 2 106.305 56.2332 -5.55112e-17
202 1 66.1168 104.739 -5.55112e-17
203 1 6.46453 21.3162 -5.55112e-17
204 2 110.015 28.9215 -5.55112e-17
205 2 65.236 95.008 -5.55112e-17
206 2 144.087 80.6886 -5.55112e-17
207 1 72.0232 128.719 -5.55112e-17
208 2 82.8703 203.566 -5.55112e-17
209 2 170.851 216.072 -5.55112e-17
210 1 175.799 189.454 -5.55112e-17
211 1 116.47 74.4908 -5.55112e-17
212 1 212.517 132.344 -5.55112e-17
213 1 166.767 153.063 -5.55112e-17
214 2 174.687 164.914 -5.55112e-17
215 1 204.666 173.016 -5.55112e-17
216 1 73.5531 68.1092 -5.55112e-17
217 1 100.37 197.44 -5.55112e-17
218 2 69.3471 48.9939 -5.55112e-17
219 2 118.219 65.9283 -5.55112e-17
220 1 194.472 186.523 -5.55112e-17
221 2 23.9257 195.176 -5.55112e-17
222 1 97.2414 25.6456 -5.55112e-17
223 1 46.1735 60.9779 -5.55112e-17
224 2 8.64043 41.3654 -5.55112e-17
225 2 166.678 32.0688 -5.55112e-17
226 1 105.81 97.763 -5.55112e-17
227 2 104.082 32.6526 -5.55112e-17
228 2 152.41 138.29 -5.55112e-17
229 1 51.9271 214.275 -5.55112e-17
230 1 178.057 190.457 -5.55112e-17
231 2 173.936 98.4646 -5.55112e-17
232 1 64.0483 50.7343 -5.55112e-17
233 2 158.53 198.552 -5.55112e-17
234 1 127.293 48.0233 -5.55112e-17
235 1 198.613 58.6938 -5.55112e-17
236 2 45.9329 155.939 -5.55112e-17
237 2 106.49 108.513 -5.55112e-17
238 2 20.397 31.7684 -5.55112e-17
239 1 181.182 196.491 -5.55112e-17
240 1 116.958 61.0822 -5.55112e-17
241 2 99.6585 144.896 -5.55112e-17
242 1 217.182 38.0553 -5.55112e-17
243 2 158.496 172.273 -5.55112e-17
244 2 171.445 147.072 -5.55112e-17
245 1 67.9475 205.949 -5.55112e-17
246 2 25.8026 82.8543 -5.55112e-17
247 2 13.4668 10.9286 -5.55112e-17
248 1 118.487 104.106 -5.55112e-17
249 1 66.9197 123.757 -5.55112e-17
250 1 114.886 23.2834 -5.55112e-17
251 2 3.20729 124.892 -5.55112e-17
252 1 99.1148 10.8752 -5.55112e-17
253 2 174.408 199.278 -5.55112e-17
254 2 6.0963 194.855 -5.55112e-17
255 2 128.62 38.3505 -5.55112e-17
256 1 172.243 187.601 -5.55112e-17
257 2 155.874 74.7511 -5.55112e-17
258 1 168.536 41.3933 -5.55112e-17
259 2 190.801 189.761 -5.55112e-17
260 1 83.1639 153.637 -5.55112e-17
261 2 139.102 177.104 -5.55112e-17
262 2 182.068 166.625 -5.55112e-17
263 2 148.343 133.22 -5.55112e-17
264 1 54.0371 137.315 -5.55112e-17
265 1 18.9944 96.1705 -5.55112e-17
266 1 129.5 65.5108 -5.55112e-17
267 2 84.5645 64.1657 -5.55112e-17
268 1 48.0443 215.445 -5.55112e-17
269 2 34.7066 5.88268 -5.55112e-17
270 2 183.917 155.667 -5.55112e-17
271 2 130.962 177.775 -5.55112e-17
272 1 93.1358 40.9918 -5.55112e-17
273 1 25.0602 200.418 -5.55112e-17
274 1 93.7304 168.069 -5.55112e-17
275 1 213.062 15.5607 -5.55112e-17
276 1 208.884 91.4471 -5.55112e-17
277 1 139.885 24.7715 -5.55112e-17
278 2 86.3125 170.748 -5.55112e-17
279 2 49.8493 44.7627 -5.55112e-17
280 1 76.186 96.066 -5.55112e-17
281 2 133.235 82.3788 -5.55112e-17
282 2 19.9388 158.514 -5.55112e-17
283 2 57.6692 192.884 -5.55112e-17
284 1 153.353 22.4515 -5.55112e-17
285 1 33.6471 2.93139 -5.55112e-17
286 2 30.8757 19.3913 -5.55112e-17
287 2 34.9857 39.3367 -5.55112e-17
288 1 159.913 157.845 -5.55112e-17
289 2 4.35042 192.254 -5.55112e-17
290 1 115.211 36.2794 -5.55112e-17
291 2 70.8576 23.3844 -5.55112e-17
292 1 211.089 10.5408 -5.55112e-17
293 1 102.773 214.933 -5.55112e-17
294 1 50.532 89.0033 -5.55112e-17
295 2 135.45 102.825 -5.55112e-17
296 1 208.085 76.771 -5.55112e-17
297 1 159.202 40.9779 -5.55112e-17
298 2 3.00863 50.655 -5.55112e-17
299 1 94.5955 86.5333 -5.55112e-17
300 2 131.141 194.976 -5.55112e-17
301 2 73.4377 95.8404 -5.55112e-17
302 2 31.1565 170.261 -5.55112e-17
303 1 109.075 155.705 -5.55112e-17
304 1 105.13 18.7576 -5.55112e-17
305 1 155.846 171.829 -5.55112e-17
306 2 88.9895 103.572 -5.55112e-17
307 2 129.924 47.1961 -5.55112e-17
308 2 84.9681 32.4485 -5.55112e-17
309 1 164.074 108.756 -5.55112e-17
310 1 117.87 78.2501 -5.55112e-17
311 1 85.8138 48.7132 -5.55112e-17
312 2 137.372 75.3674 -5.55112e-17
313 2 64.5061 28.5772 -5.55112e-17
314 1 29.3264 206.144 -5.55112e-17
315 2 85.4486 72.2271 -5.55112e-17
316 1 95.0099 144.457 -5.55112e-17
317 1 181.468 107.174 -5.55112e-17
318 1 104.169 157.364 -5.55112e-17
319 2 167.635 70.3789 -5.55112e-17
320 1 52.1941 204.854 -5.55112e-17
321 1 81.6509 196.921 -5.55112e-17
322 1 216.351 68.9802 -5.55112e-17
323 2 68.3802 94.3664 -5.55112e-17
324 2 27.0721 163.498 -5.55112e-17
325 2 126.71 184.333 -5.55112e-17
326 1 172.847 124.041 -5.55112e-17
327 1 117.827 96.6798 -5.55112e-17
328 2 202.822 20.1952 -5.55112e-17
329 2 214.803 159.417 -5.55112e-17
330 2 148.24 200.481 -5.55112e-17
331 2 107.207 131.655 -5.55112e-17
332 2 160.126 70.7546 -5.55112e-17
333 2 130.193 136.944 -5.55112e-17
334 2 26.7549 52.8281 -5.55112e-17
335 1 166.278 126.966 -5.55112e-17
336 2 5.70138 63.217 -5.55112e-17
337 2 23.3742 166.846 -5.55112e-17
338 1 160.4 150.255 -5.55112e-17
339 2 101.758 117.672 -5.55112e-17
340 2 134.575 64.7032 -5.55112e-17
341 2 9.45236 159.117 -5.55112e-17
342 2 88.0489 24.4507 -5.55112e-17
343 2 12.9861 70.3566 -5.55112e-17
344 1 106.677 137.146 -5.55112e-17
345 2 121.13 10.2439 -5.55112e-17
346 2 49.2311 127.108 -5.55112e-17
347 1 157.022 49.232 -5.55112e-17
348 1 22.2276 212.951 -5.55112e-17
349 2 74.5963 172.117 -5.55112e-17
350 2 71.6409 211.256 -5.55112e-17
351 1 160.019 191.483 -5.55112e-17
352 1 181.593 94.2563 -5.55112e-17
353 2 201.698 192.128 -5.55112e-17
354 2 161.703 152.701 -5.55112e-17
355 1 19.3285 42.9362 -5.55112e-17
356 2 77.5664 182.165 -5.55112e-17
357 1 180.723 28.4094 -5.55112e-17
358 1 140.159 215.587 -5.55112e-17
359 1 6.37768 43.0051 -5.55112e-17
360 1 85.1266 190.656 -5.55112e-17
361 2 52.6354 37.6564 -5.55112e-17
362 2 132.979 104.947 -5.55112e-17
363 1 143.35 74.634 -5.55112e-17
364 2 150.68 153.317 -5.55112e-17
365 1 109.28 83.3478 -5.55112e-17
366 1 91.3352 174.598 -5.55112e-17
367 1 160.712 173.908 -5.55112e-17
368 1 162.973 51.8125 -5.55112e-17
369 2 158.676 218.041 -5.55112e-17
370 1 31.2871 159.821 -5.55112e-17
371 2 158.78 164.729 -5.55112e-17
372 1 12.1993 25.2123 -5.55112e-17
373 2 64.4086 191.072 -5.55112e-17
374 2 206.435 154.758 -5.55112e-17
375 1 111.013 181.546 -5.55112e-17
376 1 212.646 129.723 -5.55112e-17
377 2 65.4549 140.458 -5.55112e-17
378 2 5.94068 34.5508 -5.55112e-17
379 2 68.5173 116.382 -5.55112e-17
380 1 23.9073 39.3748 -5.55112e-17
381 1 68.5627 121.266 -5.55112e-17
382 1 179.154 86.5271 -5.55112e-17
383 1 0.429204 171.674 -5.55112e-17
384 2 95.4522 94.137 -5.55112e-17
385 1 34.4324 55.9115 -5.55112e-17
386 2 198.525 159.651 -5.55112e-17
387 1 75.5127 69.0819 -5.55112e-17
388 1 11.7598 160.542 -5.55112e-17
389 2 66.7714 197.316 -5.55112e-17
390 1 144.846 22.9675 -5.55112e-17
391 1 189.679 5.0378 -5.55112e-17
392 2 143.728 88.4701 -5.55112e-17
393 2 183.816 68.0858 -5.55112e-17
394 1 53.4938 0.917396 -5.55112e-17
395 1 9.08251 210.099 -5.55112e-17
396 2 176.463 178.994 -5.55112e-17
397 1 129.057 131.883 -5.55112e-17
398 2 133.591 68.196 -5.55112e-17
399 2 16.5081 11.3338 -5.55112e-17
400 2 208.01 142.321 -5.55112e-17
401 2 138.391 0.224396 -5.55112e-17
402 1 133.763 40.0397 -5.55112e-17
403 1 101.584 24.321 -5.55112e-17
404 2 174.429 117.879 -5.55112e-17
405 1 17.7378 156.95 -5.55112e-17
406 2 205.09 206.361 -5.55112e-17
407 1 117.703 94.2376 -5.55112e-17
408 1 161.133 199.388 -5.55112e-17
409 2 57.7969 167.497 -5.55112e-17
410 2 172.328 24.6896 -5.55112e-17
411 1 169.247 2.44334 -5.55112e-17
412 1 30.3535 100.428 -5.55112e-17
413 1 129.159 102.363 -5.55112e-17
414 2 141.585 161.275 -5.55112e-17
415 1 205.817 59.2986 -5.55112e-17
416 1 44.7873 38.8797 -5.55112e-17
417 2 115.238 3.97905 -5.55112e-17
418 2 160.294 155.198 -5.55112e-17
419 2 110.151 6.44995 -5.55112e-17
420 2 31.6389 12.3186 -5.55112e-17
421 1 102.481 120.21 -5.55112e-17
422 1 126.232 84.9954 -5.55112e-17
423 2 124.914 167.494 -5.55112e-17
424 2 59.1339 142.865 -5.55112e-17
425 2 75.7493 87.5251 -5.55112e-17
426 1 165.845 56.5065 -5.55112e-17
427 2 104.659 160.973 -5.55112e-17
428 1 190.675 204.845 -5.55112e-17
429 2 28.4889 169.794 -5.55112e-17
430 2 21.8707 44.1922 -5.55112e-17
431 1 70.712 185.427 -5.55112e-17
432 2 62.659 15.5692 -5.55112e-17
433 1 120.398 187.172 -5.55112e-17
434 1 187.096 37.9461 -5.55112e-17
435 1 184.637 203.076 -5.55112e-17
436 2 13.3276 175.672 -5.55112e-17
437 2 33.7645 214.934 -5.55112e-17
438 2 32.9438 95.2613 -5.55112e-17
439 2 85.6263 2.12877 -5.55112e-17
440 2 68.2903 9.62182 -5.55112e-17
441 1 16.1368 211.426 -5.55112e-17
442 1 187.954 132.959 -5.55112e-17
443 2 167.073 180.924 -5.55112e-17
444 1 195.184 52.9593 -5.55112e-17
445 1 54.1824 26.8595 -5.55112e-17
446 2 188.345 153.381 -5.55112e-17
447 2 133.828 178.322 -5.55112e-17
448 2 108.943 158.48 -5.55112e-17
449 1 204.23 177.791 -5.55112e-17
450 1 160.936 58.3854 -5.55112e-17
451 1 79.3775 139.93 -5.55112e-17
452 2 93.4839 139.514 -5.55112e-17
453 1 186.518 182.886 -5.55112e-17
454 1 91.3914 167.936 -5.55112e-17
455 2 162.489 145.432 -5.55112e-17
456 1 140.052 114.057 -5.55112e-17
457 2 56.8486 206.1 -5.55112e-17
458 2 87.6212 195.041 -5.55112e-17
459 2 210.232 134.019 -5.55112e-17
460 1 54.6335 94.5703 -5.55112e-17
461 1 32.1725 54.6769 -5.55112e-17
462 1 187.088 128.799 -5.55112e-17
463 2 65.9093 34.6511 -5.55112e-17
464 2 159.76 176.887 -5.55112e-17
465 1 170.315 70.5296 -5.55112e-17
466 2 35.3067 217.537 -5.55112e-17
467 2 86.9665 82.6119 -5.55112e-17
468 2 147.836 205.27 -5.55112e-17
469 2 159.183 189.254 -5.55112e-17
470 2 132.422 114.427 -5.55112e-17
471 2 139.999 146.287 -5.55112e-17
472 2 100.519 16.4275 -5.55112e-17
473 2 212.443 210.749 -5.55112e-17
474 2 129.897 104.723 -5.55112e-17
475 1 4.64687 102.301 -5.55112e-17
476 2 29.9586 186.095 -5.55112e-17
477 1 176.499 99.1656 -5.55112e-17
478 1 196.591 60.5896 -5.55112e-17
479 2 196.649 199.994 -5.55112e-17
480 1 113.466 165.58 -5.55112e-17
481 1 139.807 91.0268 -5.55112e-17
482 2 129.053 180.03 -5.55112e-17
483 1 69.1619 158.521 -5.55112e-17
484 1 176.594 116.175 -5.55112e-17
485 2 74.5398 47.7128 -5.55112e-17
486 1 169.856 159.992 -5.55112e-17
487 1 114.193 52.5495 -5.55112e-17
488 1 193.917 101.852 -5.55112e-17
489 1 69.5926 20.9752 -5.55112e-17
490 1 196.933 103.655 -5.55112e-17
491 1 15.6512 54.8458 -5.55112e-17
492 2 15.375 178.422 -5.55112e-17
493 1 204.365 113.491 -5.55112e-17
494 2 154.878 32.5278 -5.55112e-17
495 1 146.811 218.023 -5.55112e-17
496 1 145.021 151.579 -5.55112e-17
497 1 155.366 59.6737 -5.55112e-17
498 2 8.42367 173.308 -5.55112e-17
499 2 110.235 172.509 -5.55112e-17
500 2 4.30342 68.144 -5.55112e-17
501 2 167.256 67.0673 -5.55112e-17
502 2 123.438 160.735 -5.55112e-17
503 2 122.307 165.506 -5.55112e-17
504 2 138.125 204.638 -5.55112e-17
505 2 129.185 124.813 -5.55112e-17
506 1 104.738 43.2557 -5.55112e-17
507 2 27.1214 191.295 -5.55112e-17
508 1 218.756 44.9458 -5.55112e-17
509 1 201.006 137.476 -5.55112e-17
510 1 77.2161 6.8286 -5.55112e-17
511 2 156.675 45.831 -5.55112e-17
512 1 170.538 137.637 -5.55112e-17
513 2 148.72 208.558 -5.55112e-17
514 2 146.633 122.99 -5.55112e-17
515 1 218.245 191.789 -5.55112e-17
516 2 191.675 69.9728 -5.55112e-17
517 1 23.4511 84.2832 -5.55112e-17
518 2 93.887 199.726 -5.55112e-17
519 1 134.737 74.7337 -5.55112e-17
520 2 8.24248 95.8961 -5.55112e-17
521 2 131.429 163.176 -5.55112e-17
522 1 24.2013 139.198 -5.55112e-17
523 1 156.606 140.072 -5.55112e-17
524 2 19.6088 60.5278 -5.55112e-17
525 2 142.589 166.724 -5.55112e-17
526 2 144.055 142.871 -5.55112e-17
527 1 37.2434 12.8929 -5.55112e-17
528 1 187.655 177.118 -5.55112e-17
529 2 18.2914 203.571 -5.55112e-17
530 2 102.885 130.314 -5.55112e-17
531 2 21.0491 124.411 -5.55112e-17
532 1 209.695 190.858 -5.55112e-17
533 2 131.322 95.1982 -5.55112e-17
534 1 2.98886 86.8472 -5.55112e-17
535 1 46.4197 148.526 -5.55112e-17
536 2 180.948 33.4601 -5.55112e-17
537 1 100.252 147.418 -5.55112e-17
538 1 184.526 218.836 -5.55112e-17
539 2 105.839 21.4827 -5.55112e-17
540 1 189.354 149.167 -5.55112e-17
541 1 73.362 3.02387 -5.55112e-17
542 1 110.718 175.468 -5.55112e-17
543 2 7.14452 121.169 -5.55112e-17
544 1 203.771 168.569 -5.55112e-17
545 1 116.378 189.546 -5.55112e-17
546 2 176.268 63.0491 -5.55112e-17
547 1 82.0663 198.946 -5.55112e-17
548 1 45.5952 215.393 -5.55112e-17
549 2 22.7412 122.02 -5.55112e-17
550 2 185.034 31.1856 -5.55112e-17
551 2 98.7464 105.182 -5.55112e-17
552 1 138.733 88.9183 -5.55112e-17
553 2 135.352 197.982 -5.55112e-17
554 2 170.394 85.449 -5.55112e-17
555 2 43.4776 188.699 -5.55112e-17
556 1 70.5874 25.8992 -5.55112e-17
557 1 82.3722 111.626 -5.55112e-17
558 1 47.9832 161.146 -5.55112e-17
559 2 18.3621 33.4246 -5.55112e-17
560 2 9.49578 122.902 -5.55112e-17
561 2 77.0539 17.1128 -5.55112e-17
562 2 124.07 131.284 -5.55112e-17
563 1 201.726 177.931 -5.55112e-17
564 2 104.258 87.6451 -5.55112e-17
565 2 208.802 96.1312 -5.55112e-17
566 2 36.1196 210.537 -5.55112e-17
567 1 62.1551 74.1855 -5.55112e-17
568 1 60.0544 158.19 -5.55112e-17
569 2 153.599 76.5803 -5.55112e-17
570 2 28.7743 113.309 -5.55112e-17
571 2 2.26106 59.9879 -5.55112e-17
572 1 144.511 57.6087 -5.55112e-17
573 2 36.4119 147.931 -5.55112e-17
574 2 31.9301 22.2737 -5.55112e-17
575 1 70.3642 13.485 -5.55112e-17
576 1 34.2765 114.928 -5.55112e-17
577 1 46.7068 120.798 -5.55112e-17
578 1 101.685 132.712 -5.55112e-17
579 2 111.954 167.662 -5.55112e-17
580 1 86.5707 5.528 -5.55112e-17
581 1 113.227 81.4138 -5.55112e-17
582 2 158.642 152.515 -5.55112e-17
583 2 123.372 174.834 -5.55112e-17
584 2 103.901 201.673 -5.55112e-17
585 1 4.38445 109.432 -5.55112e-17
586 1 122.453 116.83 -5.55112e-17
587 1 70.5303 16.0358 -5.55112e-17
588 2 3.10101 27.2607 -5.55112e-17
589 1 160.577 179.602 -5.55112e-17
590 2 128.78 62.9492 -5.55112e-17
591 2 140.757 27.4356 -5.55112e-17
592 1 153.104 66.3585 -5.55112e-17
593 1 36.9331 24.9673 -5.55112e-17
594 1 55.5496 191.665 -5.55112e-17
595 1 39.0075 135.869 -5.55112e-17
596 2 78.0266 2.22345 -5.55112e-17
597 2 98.258 123.102 -5.55112e-17
598 2 160.675 196.648 -5.55112e-17
599 2 127.925 158.951 -5.55112e-17
600 2 29.2101 0.604954 -5.55112e-17
601 1 74.7552 85.4923 -5.55112e-17
602 1 182.571 202.379 -5.55112e-17
603 2 136.428 51.7438 -5.55112e-17
604 1 168.848 72.5757 -5.55112e-17
605 2 92.5745 144.395 -5.55112e-17
606 2 146.614 107.262 -5.55112e-17
607 2 111.528 179.148 -5.55112e-17
608 2 213.49 205.653 -5.55112e-17
609 1 217.401 203.024 -5.55112e-17
610 2 137.799 78.0856 -5.55112e-17
611 1 66.1452 13.5558 -5.55112e-17
612 1 206.494 32.1879 -5.55112e-17
613 2 87.6872 77.0176 -5.55112e-17
614 1 132.383 58.2951 -5.55112e-17
615 1 127.645 1.95878 -5.55112e-17
616 2 40.0738 185.071 -5.55112e-17
617 1 75.3297 36.3379 -5.55112e-17
618 1 214.69 63.3369 -5.55112e-17
619 1 27.4223 96.5609 -5.55112e-17
620 2 117.538 187.147 -5.55112e-17
621 2 115.132 131.826 -5.55112e-17
622 2 132.124 73.6506 -5.55112e-17
623 2 127.309 104.852 -5.55112e-17
624 1 198.721 21.4114 -5.55112e-17
625 2 171.387 100.1 -5.55112e-17
626 1 88.7698 170.946 -5.55112e-17
627 2 192.614 75.0934 -5.55112e-17
628 1 41.167 112.783 -5.55112e-17
629 1 71.5281 158.55 -5.55112e-17
630 2 204.848 41.1977 -5.55112e-17
631 2 3.29691 139.727 -5.55112e-17
632 2 112.662 78.7626 -5.55112e-17
633 2 131.812 4.63486 -5.55112e-17
634 2 8.18477 52.7506 -5.55112e-17
635 2 104.956 178.52 -5.55112e-17
636 1 6.0337 189.996 -5.55112e-17
637 1 140.984 197.054 -5.55112e-17
638 1 40.3544 15.2506 -5.55112e-17
639 2 14.0384 213.085 -5.55112e-17
640 2 121.956 209.476 -5.55112e-17
641 1 138.522 17.5073 -5.55112e-17
642 2 22.6569 131.895 -5.55112e-17
643 1 196.061 202.798 -5.55112e-17
644 2 148.462 72.2751 -5.55112e-17
645 2 174.403 141.26 -5.55112e-17
646 1 132.44 28.29 -5.55112e-17
647 2 134.741 4.11762 -5.55112e-17
648 2 26.8897 91.0397 -5.55112e-17
649 1 214.475 43.6388 -5.55112e-17
650 1 80.4349 215.509 -5.55112e-17
651 1 62.6631 94.7321 -5.55112e-17
652 2 121.052 197.177 -5.55112e-17
653 2 204.725 158.703 -5.55112e-17
654 1 190.735 53.7652 -5.55112e-17
655 1 115.751 47.4707 -5.55112e-17
656 1 190.284 116.055 -5.55112e-17
657 1 129.263 109.431 -5.55112e-17
658 2 56.5141 4.48003 -5.55112e-17
659 2 204.411 132.758 -5.55112e-17
660 1 213.354 108.869 -5.55112e-17
661 2 84.4012 113.071 -5.55112e-17
662 2 95.6111 16.2364 -5.55112e-17
663 1 142.741 11.2705 -5.55112e-17
664 1 125.251 2.41102 -5.55112e-17
665 1 42.2226 139.797 -5.55112e-17
666 1 62.4831 155.563 -5.55112e-17
667 1 163.113 112.688 -5.55112e-17
668 1 54.7554 126.084 -5.55112e-17
669 1 154.518 128.678 -5.55112e-17
670 2 88.6037 185.432 -5.55112e-17
671 1 161.427 181.833 -5.55112e-17
672 1 151.063 98.7989 -5.55112e-17
673 2 96.1717 140.489 -5.55112e-17
674 2 209.39 40.8575 -5.55112e-17
675 2 74.6129 181.238 -5.55112e-17
676 1 141.57 210.488 -5.55112e-17
677 2 6.54799 12.8974 -5.55112e-17
678 1 161.299 164.911 -5.55112e-17
679 1 133.235 216.424 -5.55112e-17
680 2 178.429 195.781 -5.55112e-17
681 1 99.7707 136.389 -5.55112e-17
682 1 122.62 187.197 -5.55112e-17
683 2 96.9283 146.387 -5.55112e-17
684 1 191.201 35.8264 -5.55112e-17
685 1 128.81 213.645 -5.55112e-17
686 1 170.523 34.4215 -5.55112e-17
687 1 132.706 117.836 -5.55112e-17
688 1 218.585 167.547 -5.55112e-17
689 2 195.608 34.0799 -5.55112e-17
690 1 168.909 166.025 -5.55112e-17
691 2 49.0549 15.9163 -5.55112e-17
692 2 208.07 129.487 -5.55112e-17
693 1 72.4881 160.859 -5.55112e-17
694 2 107.28 215.569 -5.55112e-17
695 2 125.244 6.8732 -5.55112e-17
696 2 162.406 190.931 -5.55112e-17
697 1 182.825 169.581 -5.55112e-17
698 2 68.5417 140.901 -5.55112e-17
699 1 121.096 7.50359 -5.55112e-17
700 2 106.059 116.567 -5.55112e-17
701 2 31.4612 92.493 -5.55112e-17
702 1 136.977 43.345 -5.55112e-17
703 1 186.541 95.7975 -5.55112e-17
704 1 29.8091 61.5625 -5.55112e-17
705 1 178.148 192.932 -5.55112e-17
706 1 52.7658 216.512 -5.55112e-17
707 1 146.198 1.75267 -5.55112e-17
708 2 105.765 129.293 -5.55112e-17
709 1 210.594 2.12285 -5.55112e-17
710 2 80.2065 56.8462 -5.55112e-17
711 2 215.087 217.043 -5.55112e-17
712 1 132.269 212.155 -5.55112e-17
713 1 39.7793 147.597 -5.55112e-17
714 2 209.159 202.563 -5.55112e-17
715 2 208.006 213.238 -5.55112e-17
716 1 196.88 180.112 -5.55112e-17
717 1 78.3052 210.115 -5.55112e-17
718 2 99.0613 117.884 -5.55112e-17
719 1 171.661 31.1515 -5.55112e-17
720 2 210.619 194.005 -5.55112e-17
721 2 146.622 197.916 -5.55112e-17
722 2 110.652 138.613 -5.55112e-17
723 2 158.062 114.006 -5.55112e-17
724 2 62.5992 142.019 -5.55112e-17
725 2 202.865 180.295 -5.55112e-17
726 2 25.5508 123.076 -5.55112e-17
727 2 60.6049 103.145 -5.55112e-17
728 1 101.71 34.3767 -5.55112e-17
729 2 178.502 4.54702 -5.55112e-17
730 2 43.9843 153.412 -5.55112e-17
731 1 98.8247 161.503 -5.55112e-17
732 2 149.254 69.3623 -5.55112e-17
733 2 13.8109 145.606 -5.55112e-17
734 2 148.247 154.575 -5.55112e-17
735 2 155.145 43.1195 -5.55112e-17
736 1 8.45242 62.5823 -5.55112e-17
737 2 170.677 129.945 -5.55112e-17
738 2 18.0254 108.643 -5.55112e-17
739 2 46.651 45.919 -5.55112e-17
740 2 64.1123 62.8182 -5.55112e-17
741 2 193.513 150.596 -5.55112e-17
742 1 3.04925 96.7063 -5.55112e-17
743 2 72.3127 49.7911 -5.55112e-17
744 1 166.988 17.6975 -5.55112e-17
745 2 55.4928 37.028 -5.55112e-17
746 1 210.185 130.838 -5.55112e-17
747 1 57.8262 73.8638 -5.55112e-17
748 2 39.4241 170.561 -5.55112e-17
749 1 25.693 24.4228 -5.55112e-17
750 1 58.5956 85.4991 -5.55112e-17
751 1 86.3239 120.236 -5.55112e-17
752 2 163.747 142.922 -5.55112e-17
753 1 5.31057 60.5404 -5.55112e-17
754 2 114.051 39.1486 -5.55112e-17
755 1 91.2943 38.8434 -5.55112e-17
756 2 91.9036 182.574 -5.55112e-17
757 1 36.6286 7.99764 -5.55112e-17
758 2 108.52 187.01 -5.55112e-17
759 1 9.61543 110.414 -5.55112e-17
760 1 83.5391 115.854 -5.55112e-17
761 2 0.414742 62.2443 -5.55112e-17
762 1 72.4754 192.252 -5.55112e-17
763 2 156.755 70.7046 -5.55112e-17
764 2 120.048 108.455 -5.55112e-17
765 1 62.3736 64.2438 -5.55112e-17
766 2 95.6332 166.041 -5.55112e-17
767 2 107.082 6.72801 -5.55112e-17
768 2 142.001 34.9798 -5.55112e-17
769 2 67.6814 191.097 -5.55112e-17
770 1 46.6565 126.74 -5.55112e-17
771 1 33.6315 11.0251 -5.55112e-17
772 1 187.75 83.0232 -5.55112e-17
773 2 39.1558 104.737 -5.55112e-17
774 1 98.1173 166.946 -5.55112e-17
775 1 145.05 189.418 -5.55112e-17
776 2 181.817 135.983 -5.55112e-17
777 2 165.723 19.9264 -5.55112e-17
778 1 65.3001 170.529 -5.55112e-17
779 1 191.469 72.6168 -5.55112e-17
780 2 73.3669 52.854 -5.55112e-17
781 1 190.634 184.388 -5.55112e-17
782 2 3.44691 73.763 -5.55112e-17
783 1 24.0223 10.4469 -5.55112e-17
784 2 199.986 19.1484 -5.55112e-17
785 1 176.945 185.507 -5.55112e-17
786 1 10.9737 29.8151 -5.55112e-17
787 2 13.7049 190.818 -5.55112e-17
788 2 154.993 179.366 -5.55112e-17
789 2 14.499 92.7775 -5.55112e-17
790 2 148.148 24.1295 -5.55112e-17
791 2 159.063 131.232 -5.55112e-17
792 1 58.9424 119.204 -5.55112e-17
793 1 36.7693 83.9004 -5.55112e-17
794 2 180.116 141.312 -5.55112e-17
795 2 15.2719 89.4817 -5.55112e-17
796 1 37.5247 20.0968 -5.55112e-17
797 1 28.848 107.53 -5.55112e-17
798 1 21.8236 134.592 -5.55112e-17
799 2 209.488 88.5728 -5.55112e-17
800 1 25.0463 93.1339 -5.55112e-17
801 2 107.061 32.3536 -5.55112e-17
802 1 124.352 185.312 -5.55112e-17
803 1 179.502 39.0197 -5.55112e-17
804 1 120.085 12.5543 -5.55112e-17
805 2 175.675 131.071 -5.55112e-17
806 2 199.044 93.922 -5.55112e-17
807 2 147.424 130.131 -5.55112e-17
808 2 48.6338 33.9451 -5.55112e-17
809 1 195.674 14.2129 -5.55112e-17
810 2 12.8526 67.2515 -5.55112e-17
811 2 83.8898 178.437 -5.55112e-17
812 1 168.29 26.9253 -5.55112e-17
813 1 96.7572 175.191 -5.55112e-17
814 1 128.469 95.3693 -5.55112e-17
815 1 176.823 30.4803 -5.55112e-17
816 1 103.808 123.37 -5.55112e-17
817 2 32.2498 173.275 -5.55112e-17
818 2 109.879 212.009 -5.55112e-17
819 2 105.525 188.165 -5.55112e-17
820 1 130.582 9.92283 -5.55112e-17
821 1 35.4831 51.4023 -5.55112e-17
822 2 119.128 182.237 -5.55112e-17
823 1 191.758 211.925 -5.55112e-17
824 1 68.9247 40.6975 -5.55112e-17
825 1 75.5867 110.297 -5.55112e-17
826 2 107.355 197.354 -5.55112e-17
827 2 22.949 204.513 -5.55112e-17
828 1 101.52 201.116 -5.55112e-17
829 2 97.3115 143.333 -5.55112e-17
830 1 140.812 17.2478 -5.55112e-17
831 2 202.98 23.3052 -5.55112e-17
832 2 130.633 52.4929 -5.55112e-17
833 2 133.976 141.54 -5.55112e-17
834 1 96.4109 184.301 -5.55112e-17
835 1 34.7895 201.372 -5.55112e-17
836 1 207.138 158.067 -5.55112e-17
837 2 150.238 130.568 -5.55112e-17
838 2 211.966 154.392 -5.55112e-17
839 1 22.3512 159.347 -5.55112e-17
840 2 4.53568 116.955 -5.55112e-17
841 2 3.05859 145.581 -5.55112e-17
842 1 190.658 169.081 -5.55112e-17
843 1 17.6911 73.0788 -5.55112e-17
844 2 10.1924 171.207 -5.55112e-17
845 1 19.9769 155.751 -5.55112e-17
846 2 212.55 218.967 -5.55112e-17
847 1 114.651 87.7045 -5.55112e-17
848 2 99.6056 202.45 -5.55112e-17
849 1 214.916 133.807 -5.55112e-17
850 2 77.2445 166.804 -5.55112e-17
851 2 124.049 182.737 -5.55112e-17
852 1 72.1303 133.338 -5.55112e-17
853 1 66.8087 17.6628 -5.55112e-17
854 2 47.9799 113.055 -5.55112e-17
855 2 17.1087 130.322 -5.55112e-17