ITEM: TIMESTEP
0
ITEM: NUMBER OF ATOMS
7200
ITEM: BOX BOUNDS xy xz yz pp pp pp
0.0000000000000000e+00 2.1900000000000000e+02 0.0000000000000000e+00
0.0000000000000000e+00 2.1900000000000000e+02 0.0000000000000000e+00
-3.6499999999999999e-01 3.6499999999999999e-01 0.0000000000000000e+00
ITEM: ATOMS id type x y z
1 1 182.754 12.7319 -5.55112e-17
2 2 187.988 183.304 -5.55112e-17
3 2 144.366 189.399 -5.55112e-17
4 1 122.863 109.942 -5.55112e-17
5 1 101.394 122.734 -5.55112e-17
6 1 104.727 25.3123 -5.55112e-17
7 2 161.659 130.444 -5.55112e-17
8 2 70.1872 25.7927 -5.55112e-17
9 1 21.8237 215.166 -5.55112e-17
10 2 52.7281 166.941 -5.55112e-17
11 2 210.355 100.563 -5.55112e-17
12 1 33.6444 197.708 -5.55112e-17
13 2 194.519 53.9694 -5.55112e-17
14 1 57.4887 185.236 -5.55112e-17
15 2 193.35 218.987 -5.55112e-17
16 2 218.028 86.0409 -5.55112e-17
17 1 67.5089 74.3549 -5.55112e-17
18 2 10.6223 172.601 -5.55112e-17
19 1 92.7269 130.252 -5.55112e-17
20 1 72.8461 11.1008 -5.55112e-17
21 1 156.441 6.98636 -5.55112e-17
22 2 31.4887 212.648 -5.55112e-17
23 2 43.611 208.237 -5.55112e-17
24 2 0.213843 103.355 -5.55112e-17
25 2 29.8297 207.608 -5.55112e-17
26 2 149.584 27.8986 -5.55112e-17
27 1 217.403 162.444 -5.55112e-17
28 2 54.5872 155.151 -5.55112e-17
29 2 84.2057 4.20531 -5.55112e-17
30 2 132.483 37.7092 -5.55112e-17
31 2 156.611 83.6287 -5.55112e-17
32 1 48.4069 108.797 -5.55112e-17
33 2 144.922 87.5258 -5.55112e-17
34 2 16.2362 96.0674 -5.55112e-17
35 2 127.171 11.5879 -5.55112e-17
36 1 160.176 146.413 -5.55112e-17
37 1 133.451 185.039 -5.55112e-17
38 2 209.226 158.043 -5.55112e-17
39 1 7.79312 38.6537 -5.55112e-17
40 2 196.406 73.821 -5.55112e-17
41 1 193.057 73.4688 -5.55112e-17
42 1 54.2981 59.1936 -5.55112e-17
43 1 210.711 132.482 -5.55112e-17
44 1 155.228 188.109 -5.55112e-17
45 2 159.389 61.3425 -5.55112e-17
46 1 124.565 192.547 -5.55112e-17
47 2 89.1201 79.384 -5.55112e-17
48 2 151.033 131.736 -5.55112e-17
49 1 194.082 199.98 -5.55112e-17
50 2 28.88 47.6416 -5.55112e-17
51 1 186.57 3.12483 -5.55112e-17
52 1 115.883 48.0885 -5.55112e-17
53 2 55.3622 201.193 -5.55112e-17
54 1 39.1248 16.6685 -5.55112e-17
55 2 52.9563 141.245 -5.55112e-17
56 1 31.5784 132.859 -5.55112e-17
57 2 58.2934 133.929 -5.55112e-17
58 1 185.879 36.8666 -5.55112e-17
59 1 157.3 86.2941 -5.55112e-17
60 2 205.892 59.6131 -5.55112e-17
61 1 157.274 163.876 -5.55112e-17
62 1 106.594 111.769 -5.55112e-17
63 2 108.778 38.8552 -5.55112e-17
64 1 28.1485 17.9085 -5.55112e-17
65 2 152.192 149.177 -5.55112e-17
66 2 13.4808 154.837 -5.55112e-17
67 2 183.18 107.777 -5.55112e-17
68 1 136.834 83.1522 -5.55112e-17
69 2 109.567 168.864 -5.55112e-17
70 1 141.795 97.9559 -5.55112e-17
71 1 198.25 147.554 -5.55112e-17
72 2 44.8836 157.862 -5.55112e-17
73 2 191.708 179.674 -5.55112e-17
74 2 111.591 66.9285 -5.55112e-17
75 1 15.175 136.936 -5.55112e-17
76 2 138.025 206.637 -5.55112e-17
77 2 168.714 15.1723 -5.55112e-17
78 1 93.5938 208.043 -5.55112e-17
79 2 60.3768 75.7343 -5.55112e-17
80 1 49.9311 23.1364 -5.55112e-17
81 1 181.67 211.044 -5.55112e-17
82 1 173.733 41.1401 -5.55112e-17
83 1 70.7964 91.0912 -5.55112e-17
84 2 140.93 179.189 -5.55112e-17
85 2 151.003 145.829 -5.55112e-17
86 2 50.8623 67.8859 -5.55112e-17
87 2 37.6524 76.4639 -5.55112e-17
88 1 80.5815 157.16 -5.55112e-17
89 2 199.991 105.733 -5.55112e-17
90 2 126.486 36.2833 -5.55112e-17
91 2 11.0454 182.859 -5.55112e-17
92 1 27.4475 215.572 -5.55112e-17
93 2 110.295 154.302 -5.55112e-17
94 2 113.056 144.352 -5.55112e-17
95 1 210.912 51.7914 -5.55112e-17
96 2 31.6203 54.4044 -5.55112e-17
97 2 4.33071 211.942 -5.55112e-17
98 2 35.4609 185.259 -5.55112e-17
99 1 105.1 10.0317 -5.55112e-17
100 2 158.961 65.6398 -5.55112e-17
101 1 184.339 110.409 -5.55112e-17
102 1 66.3004 164.457 -5.55112e-17
103 2 205.166 100.749 -5.55112e-17
104 2 104.015 73.0242 -5.55112e-17
105 1 160.97 59.1584 -5.55112e-17
106 1 185.339 60.8225 -5.55112e-17
107 1 12.7521 106.963 -5.55112e-17
108 1 70.5987 210.006 -5.55112e-17
109 2 217.573 39.601 -5.55112e-17
110 2 145.025 29.5719 -5.55112e-17
111 1 52.6856 92.1496 -5.55112e-17
112 2 8.26372 51.219 -5.55112e-17
113 1 134.865 10.5746 -5.55112e-17
114 1 92.2066 86.4224 -5.55112e-17
115 2 30.8167 58.9675 -5.55112e-17
116 2 183.848 15.364 -5.55112e-17
117 1 163.281 110.447 -5.55112e-17
118 1 82.6132 94.2719 -5.55112e-17
119 2 99.3314 139.271 -5.55112e-17
120 2 201.24 58.6997 -5.55112e-17
121 1 205.768 139.046 -5.55112e-17
122 2 143.076 130.023 -5.55112e-17
123 2 7.12729 129.859 -5.55112e-17
124 1 161.204 199.575 -5.55112e-17
125 1 88.2105 192.92 -5.55112e-17
126 2 97.7448 83.6022 -5.55112e-17
127 2 209.236 111.138 -5.55112e-17
128 1 121.923 105.04 -5.55112e-17
129 1 144.013 194.238 -5.55112e-17
130 2 120.405 61.1088 -5.55112e-17
131 1 134.532 60.2142 -5.55112e-17
132 1 139.49 21.8077 -5.55112e-17
133 1 180.894 105.142 -5.55112e-17
134 1 81.1934 191.167 -5.55112e-17
135 2 177.642 61.1042 -5.55112e-17
136 1 190.682 118.847 -5.55112e-17
137 1 61 7.11977 -5.55112e-17
138 2 156.226 158.716 -5.55112e-17
139 1 132.631 12.1121 -5.55112e-17
140 1 144.997 208.213 -5.55112e-17
141 1 51.0777 70.5959 -5.55112e-17
142 1 212.733 190.582 -5.55112e-17
143 1 26.3675 25.8243 -5.55112e-17
144 1 46.6903 97.7442 -5.55112e-17
145 2 193.009 80.2823 -5.55112e-17
146 1 152.208 128.45 -5.55112e-17
147 2 16.5878 134.95 -5.55112e-17
148 1 24.7508 133.385 -5.55112e-17
149 1 147.224 190.064 -5.55112e-17
150 2 65.0648 52.2608 -5.55112e-17
151 1 132.06 138.305 -5.55112e-17
152 1 164.059 162.937 -5.55112e-17
153 2 124.056 130.214 -5.55112e-17
154 1 184.234 53.0455 -5.55112e-17
155 2 203.271 40.1591 -5.55112e-17
156 2 109.591 196.93 -5.55112e-17
157 2 167.101 25.9371 -5.55112e-17
158 2 27.9666 8.045 -5.55112e-17
159 2 12.1928 158.952 -5.55112e-17
160 2 120.99 54.8655 -5.55112e-17
161 2 129.564 139.024 -5.55112e-17
162 1 23.6207 67.2721 -5.55112e-17
163 1 189.257 33.8117 -5.55112e-17
164 2 108.486 134.486 -5.55112e-17
165 1 48.8962 72.0341 -5.55112e-17
166 2 5.88606 200.038 -5.55112e-17
167 1 106.957 167.801 -5.55112e-17
168 1 211.477 103.062 -5.55112e-17
169 2 98.2791 199.307 -5.55112e-17
170 1 66.635 206.454 -5.55112e-17
171 1 137.204 92.2001 -5.55112e-17
172 1 199.191 199.172 -5.55112e-17
173 1 39.0153 203.852 -5.55112e-17
174 2 38.6417 173.419 -5.55112e-17
175 2 49.9544 199.532 -5.55112e-17
176 1 119.898 151.537 -5.55112e-17
177 2 105.166 15.4658 -5.55112e-17
178 1 25.3222 7.65041 -5.55112e-17
179 2 106.388 197.398 -5.55112e-17
180 1 47.086 76.3993 -5.55112e-17
181 1 16.4009 119.231 -5.55112e-17
182 1 113.475 86.7365 -5.55112e-17
183 1 64.1144 168.641 -5.55112e-17
184 2 157.653 25.4637 -5.55112e-17
185 2 190.399 78.8495 -5.55112e-17
186 2 74.726 206.119 -5.55112e-17
187 2 158.989 201.576 -5.55112e-17
188 2 60.3558 28.2655 -5.55112e-17
189 1 191.005 57.8065 -5.55112e-17
190 1 196.306 55.653 -5.55112e-17
191 2 35.4522 104.703 -5.55112e-17
192 2 89.541 60.459 -5.55112e-17
193 1 108.824 165.873 -5.55112e-17
194 1 26.6338 5.78042 -5.55112e-17
195 2 57.8936 119.709 -5.55112e-17
196 1 0.107747 0.00715962 -5.55112e-17
197 2 118.301 47.7458 -5.55112e-17
198 2 206.28 27.6153 -5.55112e-17
199 2 100.078 170.31 -5.55112e-17
200 2 98.7836 31.5741 -5.55112e-17
201 2 103.213 120.884 -5.55112e-17
202 1 43.7473 34.0453 -5.55112e-17
203 1 18.1222 43.2093 -5.55112e-17
204 2 44.8971 78.2617 -5.55112e-17
205 2 183.037 182.053 -5.55112e-17
206 2 169.919 126.748 -5.55112e-17
207 1 75.1429 189.144 -5.55112e-17
208 2 135.342 54.3636 -5.55112e-17
209 2 33.0289 142.436 -5.55112e-17
210 1 182.125 113.174 -5.55112e-17
211 1 208.383 35.4748 -5.55112e-17
212 1 208.583 85.4803 -5.55112e-17
213 1 128.376 123.699 -5.55112e-17
214 2 12.0955 11.6167 -5.55112e-17
215 1 5.68924 142.462 -5.55112e-17
216 1 54.7836 46.5212 -5.55112e-17
217 1 164.369 61.8088 -5.55112e-17
218 2 201.152 121.595 -5.55112e-17
219 2 136.193 189.392 -5.55112e-17
220 1 120.875 1.51518 -5.55112e-17
221 2 83.4962 7.41614 -5.55112e-17
222 1 158.65 156.84 -5.55112e-17
223 1 45.8584 120.386 -5.55112e-17
224 2 145.641 71.1707 -5.55112e-17
225 2 169.019 163.717 -5.55112e-17
226 1 196.432 10.0017 -5.55112e-17
227 2 202.99 214.626 -5.55112e-17
228 2 117.89 63.4562 -5.55112e-17
229 1 47.7155 22.7258 -5.55112e-17
230 1 4.37139 56.9942 -5.55112e-17
231 2 137.03 160.822 -5.55112e-17
232 1 18.0706 213.32 -5.55112e-17
233 2 75.6384 195.425 -5.55112e-17
234 1 0.299268 59.9154 -5.55112e-17
235 1 150.287 106.206 -5.55112e-17
236 2 153.59 52.9266 -5.55112e-17
237 2 99.7638 203.972 -5.55112e-17
238 2 95.0244 140.309 -5.55112e-17
239 1 35.8424 216.542 -5.55112e-17
240 1 129.368 91.0269 -5.55112e-17
241 2 3.69754 124.612 -5.55112e-17
242 1 194.122 28.4731 -5.55112e-17
243 2 215.167 130.479 -5.55112e-17
244 2 35.6185 190.965 -5.55112e-17
245 1 173.456 21.0694 -5.55112e-17
246 2 89.9424 84.8246 -5.55112e-17
247 2 199.009 150.427 -5.55112e-17
248 1 38.049 26.8262 -5.55112e-17
249 1 131.778 108.299 -5.55112e-17
250 1 134.585 27.9804 -5.55112e-17
251 2 101.942 43.5153 -5.55112e-17
252 1 111.261 157.151 -5.55112e-17
253 2 95.3955 97.1443 -5.55112e-17
254 2 179.494 205.172 -5.55112e-17
255 2 121.018 52.0363 -5.55112e-17
256 1 3.00871 180.141 -5.55112e-17
257 2 32.2985 195.289 -5.55112e-17
258 1 210.84 81.6052 -5.55112e-17
259 2 160.945 141.371 -5.55112e-17
260 1 40.007 192.738 -5.55112e-17
261 2 142.825 176.78 -5.55112e-17
262 2 186.871 110.598 -5.55112e-17
263 2 94.8472 172.703 -5.55112e-17
264 1 199.352 36.5932 -5.55112e-17
265 1 157.322 186.761 -5.55112e-17
266 1 99.0114 196.611 -5.55112e-17
267 2 115.299 16.6454 -5.55112e-17
268 1 218.516 49.0029 -5.55112e-17
269 2 10.3858 113.413 -5.55112e-17
270 2 185.743 148.656 -5.55112e-17
271 2 187.903 94.907 -5.55112e-17
272 1 59.2192 25.7493 -5.55112e-17
273 1 70.1091 83.3398 -5.55112e-17
274 1 38.1058 196.522 -5.55112e-17
275 1 146.517 110.285 -5.55112e-17
276 1 199.198 75.1545 -5.55112e-17
277 1 100.464 38.0326 -5.55112e-17
278 2 60.6228 145.388 -5.55112e-17
279 2 159.941 86.5535 -5.55112e-17
280 1 117.085 210.664 -5.55112e-17
281 2 169.749 182.497 -5.55112e-17
282 2 75.1551 127.2 -5.55112e-17
283 2 0.0456339 151.162 -5.55112e-17
284 1 125.762 113.625 -5.55112e-17
285 1 73.3377 165.482 -5.55112e-17
286 2 30.1556 180.448 -5.55112e-17
287 2 93.6764 109.827 -5.55112e-17
288 1 103.762 123.483 -5.55112e-17
289 2 193.691 56.888 -5.55112e-17
290 1 101.431 31.2472 -5.55112e-17
291 2 96.4395 185.889 -5.55112e-17
292 1 76.7344 125.275 -5.55112e-17
293 1 159.122 167.744 -5.55112e-17
294 1 29.7298 177.801 -5.55112e-17
295 2 46.8632 145.974 -5.55112e-17
296 1 196.451 176.837 -5.55112e-17
297 1 2.16881 18.4339 -5.55112e-17
298 2 30.7208 140.781 -5.55112e-17
299 1 177.679 55.7338 -5.55112e-17
300 2 189.902 192.751 -5.55112e-17
301 2 171.609 19.1528 -5.55112e-17
302 2 163.713 89.4292 -5.55112e-17
303 1 2.58611 151.769 -5.55112e-17
304 1 124.386 105.873 -5.55112e-17
305 1 92.0804 177.511 -5.55112e-17
306 2 84.355 18.193 -5.55112e-17
307 2 150.36 167.566 -5.55112e-17
308 2 142.075 22.304 -5.55112e-17
309 1 70.5691 72.0548 -5.55112e-17
310 1 190.402 190.144 -5.55112e-17
311 1 151.226 108.749 -5.55112e-17
312 2 134.957 13.5477 -5.55112e-17
313 2 154.788 18.1033 -5.55112e-17
314 1 184.4 58.483 -5.55112e-17
315 2 56.797 107.892 -5.55112e-17
316 1 96.1209 31.4813 -5.55112e-17
317 1 133.031 175.932 -5.55112e-17
318 1 216.784 135.597 -5.55112e-17
319 2 74.5245 200.957 -5.55112e-17
320 1 213.859 47.9789 -5.55112e-17
321 1 52.3319 87.1966 -5.55112e-17
322 1 51.3695 148.101 -5.55112e-17
323 2 20.2521 138.803 -5.55112e-17
324 2 8.15439 95.7827 -5.55112e-17
325 2 215.92 13.8326 -5.55112e-17
326 1 184.759 1.14592 -5.55112e-17
327 1 35.7587 45.9477 -5.55112e-17
328 2 32.2849 192.335 -5.55112e-17
329 2 28.0879 82.5404 -5.55112e-17
330 2 153.509 38.8898 -5.55112e-17
331 2 188.056 68.069 -5.55112e-17
332 2 121.305 114.277 -5.55112e-17
333 2 28.2977 151.238 -5.55112e-17
334 2 215.697 18.2388 -5.55112e-17
335 1 167.21 210.895 -5.55112e-17
336 2 27.9397 141.817 -5.55112e-17
337 2 41.0665 9.59121 -5.55112e-17
338 1 203.172 90.9425 -5.55112e-17
339 2 15.4538 152.358 -5.55112e-17
340 2 176.916 214.145 -5.55112e-17
341 2 101.243 60.4015 -5.55112e-17
342 2 173.492 166.534 -5.55112e-17
343 2 176.189 4.74973 -5.55112e-17
344 1 88.1289 105.532 -5.55112e-17
345 2 26.2862 213.167 -5.55112e-17
346 2 75.3666 72.401 -5.55112e-17
347 1 147.619 98.6862 -5.55112e-17
348 1 181.218 3.76207 -5.55112e-17
349 2 173.42 70.3802 -5.55112e-17
350 2 78.0602 178.716 -5.55112e-17
351 1 177.07 140.979 -5.55112e-17
352 1 212.909 163.779 -5.55112e-17
353 2 140.92 131.87 -5.55112e-17
354 2 191.521 176.083 -5.55112e-17
355 1 216.06 157.417 -5.55112e-17
356 2 115.005 1.59228 -5.55112e-17
357 1 127.07 192.463 -5.55112e-17
358 1 78.2102 25.9061 -5.55112e-17
359 1 34.8576 144.144 -5.55112e-17
360 1 54.3553 7.04976 -5.55112e-17
361 2 196.614 68.7777 -5.55112e-17
362 2 172.428 94.7898 -5.55112e-17
363 1 79.1859 215.258 -5.55112e-17
364 2 216.955 46.8161 -5.55112e-17
365 1 6.02371 164.461 -5.55112e-17
366 1 82.8943 172.779 -5.55112e-17
367 1 161.117 104.001 -5.55112e-17
368 1 20.7619 164.623 -5.55112e-17
369 2 81.8969 143.584 -5.55112e-17
370 1 6.81869 132.416 -5.55112e-17
371 2 71.4313 111.09 -5.55112e-17
372 1 88.1721 7.30922 -5.55112e-17
373 2 117.853 208.278 -5.55112e-17
374 2 176.971 101.512 -5.55112e-17
375 1 136.144 25.8159 -5.55112e-17
376 1 122.36 146.897 -5.55112e-17
377 2 95.2564 75.5282 -5.55112e-17
378 2 215.667 107.206 -5.55112e-17
379 2 169.488 187.327 -5.55112e-17
380 1 199.841 33.9669 -5.55112e-17
381 1 174.826 68.0928 -5.55112e-17
382 1 122.779 27.527 -5.55112e-17
383 1 110.228 83.232 -5.55112e-17
384 2 53.9054 100.996 -5.55112e-17
385 1 66.127 148.918 -5.55112e-17
386 2 179.766 175.37 -5.55112e-17
387 1 34.8469 107.35 -5.55112e-17
388 1 143.643 163.792 -5.55112e-17
389 2 216.416 121.679 -5.55112e-17
390 1 104.827 65.9114 -5.55112e-17
391 1 203.028 217.197 -5.55112e-17
392 2 4.59344 100.55 -5.55112e-17
393 2 192.584 173.301 -5.55112e-17
394 1 36.0978 203.742 -5.55112e-17
395 1 19.1898 215.244 -5.55112e-17
396 2 75.1875 88.0014 -5.55112e-17
397 1 67.3276 41.8753 -5.55112e-17
398 2 165.993 110.596 -5.55112e-17
399 2 196.883 106.613 -5.55112e-17
400 2 123.404 68.3243 -5.55112e-17
401 2 84.4427 190.482 -5.55112e-17
402 1 84.389 43.117 -5.55112e-17
403 1 69.727 116.469 -5.55112e-17
404 2 112.9 13.9373 -5.55112e-17
405 1 49.1965 196.822 -5.55112e-17
406 2 217.082 96.0309 -5.55112e-17
407 1 123.939 78.8912 -5.55112e-17
408 1 130.301 29.3986 -5.55112e-17
409 2 214.523 116.467 -5.55112e-17
410 2 70.9146 159.035 -5.55112e-17
411 1 136.327 96.8065 -5.55112e-17
412 1 164.5 6.62964 -5.55112e-17
413 1 34.7266 86.0873 -5.55112e-17
414 2 193.083 202.508 -5.55112e-17
415 1 107.255 126.507 -5.55112e-17
416 1 176.193 52.1095 -5.55112e-17
417 2 107.946 129.289 -5.55112e-17
418 2 34.6891 179.643 -5.55112e-17
419 2 195.438 92.1606 -5.55112e-17
420 2 108.642 44.276 -5.55112e-17
421 1 70.111 30.93 -5.55112e-17
422 1 34.7808 61.1785 -5.55112e-17
423 2 116.754 125.195 -5.55112e-17
424 2 39.2761 24.6129 -5.55112e-17
425 2 117.438 150.41 -5.55112e-17
426 1 186.048 96.8598 -5.55112e-17
427 2 73.0713 59.0018 -5.55112e-17
428 1 29.3852 175.372 -5.55112e-17
429 2 131.46 149.918 -5.55112e-17
430 2 111.43 104.327 -5.55112e-17
431 1 13.2141 9.38033 -5.55112e-17
432 2 173.853 3.00871 -5.55112e-17
433 1 186.338 198.478 -5.55112e-17
434 1 20.0249 205.336 -5.55112e-17
435 1 149.651 85.2 -5.55112e-17
436 2 85.2664 198.855 -5.55112e-17
437 2 181.053 83.0569 -5.55112e-17
438 2 193.905 177.526 -5.55112e-17
439 2 92.8376 10.6166 -5.55112e-17
440 2 201.081 92.418 -5.55112e-17
441 1 130.668 167.462 -5.55112e-17
442 1 38.0018 104.905 -5.55112e-17
443 2 79.2449 81.9135 -5.55112e-17
444 1 204.712 105.58 -5.55112e-17
445 1 171.154 135.375 -5.55112e-17
446 2 183.074 150.925 -5.55112e-17
447 2 39.912 40.0895 -5.55112e-17
448 2 205.931 175.912 -5.55112e-17
449 1 41.549 177.368 -5.55112e-17
450 1 11.0224 126.646 -5.55112e-17
451 1 54.4786 209.251 -5.55112e-17
452 2 208.301 61.2075 -5.55112e-17
453 1 216.787 150.481 -5.55112e-17
454 1 3.02048 68.939 -5.55112e-17
455 2 81.2029 130.983 -5.55112e-17
456 1 85.4081 1.7472 -5.55112e-17
457 2 140.838 144.683 -5.55112e-17
458 2 155.809 135.442 -5.55112e-17
459 2 133.769 51.4654 -5.55112e-17
460 1 197.315 169.846 -5.55112e-17
461 1 112.187 128.175 -5.55112e-17
462 1 103.928 196.206 -5.55112e-17
463 2 110.272 218.622 -5.55112e-17
464 2 13.4369 77.975 -5.55112e-17
465 1 123.585 16.3773 -5.55112e-17
466 2 149.931 126.733 -5.55112e-17
467 2 65.9789 133.211 -5.55112e-17
468 2 124.148 125.515 -5.55112e-17
469 2 57.8743 71.2799 -5.55112e-17
470 2 208.861 154.741 -5.55112e-17
471 2 211.681 211.625 -5.55112e-17
472 2 111.088 36.8105 -5.55112e-17
473 2 197.674 214.493 -5.55112e-17
474 2 85.065 146.844 -5.55112e-17
475 1 164.105 182.472 -5.55112e-17
476 2 175.004 35.1207 -5.55112e-17
477 1 208.6 217.748 -5.55112e-17
478 1 45.7608 188.507 -5.55112e-17
479 2 0.245446 197.718 -5.55112e-17
480 1 83.1674 61.7091 -5.55112e-17
481 1 2.73717 209.696 -5.55112e-17
482 2 152.414 176.277 -5.55112e-17
483 1 134.444 209.323 -5.55112e-17
484 1 66.4468 135.887 -5.55112e-17
485 2 13.5076 173.719 -5.55112e-17
486 1 132.417 72.9853 -5.55112e-17
487 1 12.6683 202.433 -5.55112e-17
488 1 49.7807 83.4992 -5.55112e-17
489 1 70.361 108.817 -5.55112e-17
490 1 164.843 73.6028 -5.55112e-17
491 1 163.256 75.6605 -5.55112e-17
492 2 208.98 15.2186 -5.55112e-17
493 1 94.0526 203.053 -5.55112e-17
494 2 77.2195 65.2335 -5.55112e-17
495 1 150.069 92.2074 -5.55112e-17
496 1 52.2552 123.626 -5.55112e-17
497 1 136.658 109.668 -5.55112e-17
498 2 145.553 39.2142 -5.55112e-17
499 2 177.538 119.356 -5.55112e-17
500 2 57.1979 32.3589 -5.55112e-17
501 2 14.9526 139.67 -5.55112e-17
502 2 191.037 126.741 -5.55112e-17
503 2 57.1872 63.4545 -5.55112e-17
504 2 98.1744 50.4885 -5.55112e-17
505 2 112.462 213.791 -5.55112e-17
506 1 207.22 6.28935 -5.55112e-17
507 2 49.6782 182.689 -5.55112e-17
508 1 141.156 59.5581 -5.55112e-17
509 1 209.204 47.2845 -5.55112e-17
510 1 195.383 104.378 -5.55112e-17
511 2 108.316 179.184 -5.55112e-17
512 1 11.0111 43.0529 -5.55112e-17
513 2 88.031 182.829 -5.55112e-17
514 2 14.7022 87.3185 -5.55112e-17
515 1 60.5269 98.7363 -5.55112e-17
516 2 100.937 73.158 -5.55112e-17
517 1 32.4638 147.603 -5.55112e-17
518 2 10.1315 13.8137 -5.55112e-17
519 1 124.863 92.1548 -5.55112e-17
520 2 209.366 94.1745 -5.55112e-17
521 2 130.303 40.0036 -5.55112e-17
522 1 187.103 7.38095 -5.55112e-17
523 1 127.687 99.7184 -5.55112e-17
524 2 174.647 18.6852 -5.55112e-17
525 2 185.778 45.8246 -5.55112e-17
526 2 108.108 16.4129 -5.55112e-17
527 1 172.21 25.0402 -5.55112e-17
528 1 212.759 202.22 -5.55112e-17
529 2 104.51 176.302 -5.55112e-17
530 2 18.5123 88.2971 -5.55112e-17
531 2 184.629 171.706 -5.55112e-17
532 1 81.7617 5.11583 -5.55112e-17
533 2 23.4732 158.166 -5.55112e-17
534 1 23.0467 168.371 -5.55112e-17
535 1 170.57 206.482 -5.55112e-17
536 2 18.3357 169.521 -5.55112e-17
537 1 142.399 29.3244 -5.55112e-17
538 1 68.4885 157.957 -5.55112e-17
539 2 81.1117 162.698 -5.55112e-17
540 1 35.2482 182.353 -5.55112e-17
541 1 105.538 128.389 -5.55112e-17
542 1 58.6579 126.507 -5.55112e-17
543 2 120.256 168.322 -5.55112e-17
544 1 217.437 211.478 -5.55112e-17
545 1 174.947 72.3524 -5.55112e-17
546 2 186.75 10.0165 -5.55112e-17
547 1 12.4547 71.6905 -5.55112e-17
548 1 29.8299 5.85162 -5.55112e-17
549 2 35.3032 152.563 -5.55112e-17
550 2 164.018 193.357 -5.55112e-17
551 2 38.7795 7.15821 -5.55112e-17
552 1 31.5799 51.8361 -5.55112e-17
553 2 207.093 196.644 -5.55112e-17
554 2 144.249 34.1741 -5.55112e-17
555 2 175.715 134.111 -5.55112e-17
556 1 177.423 211.703 -5.55112e-17
557 1 210.862 54.6045 -5.55112e-17
558 1 60.0638 142.884 -5.55112e-17
559 2 105.912 91.2629 -5.55112e-17
560 2 57.1345 89.5081 -5.55112e-17
561 2 110.687 181.58 -5.55112e-17
562 2 99.2088 65.2351 -5.55112e-17
563 1 73.2616 168.375 -5.55112e-17
564 2 103.149 78.1102 -5.55112e-17
565 2 32.218 61.8234 -5.55112e-17
566 2 63.5679 60.5826 -5.55112e-17
567 1 95.2492 12.2293 -5.55112e-17
568 1 22.0054 77.8143 -5.55112e-17
569 2 141.626 194.339 -5.55112e-17
570 2 11.6468 21.4744 -5.55112e-17
571 2 4.89413 62.1721 -5.55112e-17
572 1 115.325 107.356 -5.55112e-17
573 2 37.9984 89.836 -5.55112e-17
574 2 178.756 170.746 -5.55112e-17
575 1 195.862 206.417 -5.55112e-17
576 1 22.5728 69.9453 -5.55112e-17
577 1 127.321 74.6273 -5.55112e-17
578 1 183.596 115.21 -5.55112e-17
579 2 182.759 46.5214 -5.55112e-17
580 1 108.795 103.39 -5.55112e-17
581 1 91.9497 146.581 -5.55112e-17
582 2 125.461 101.118 -5.55112e-17
583 2 103.254 83.7233 -5.55112e-17
584 2 107.413 151.109 -5.55112e-17
585 1 182.136 103.02 -5.55112e-17
586 1 143.347 80.215 -5.55112e-17
587 1 158.197 111.651 -5.55112e-17
588 2 64.4298 108.754 -5.55112e-17
589 1 210.612 59.6862 -5.55112e-17
590 2 181.598 58.4602 -5.55112e-17
591 2 178.694 16.5004 -5.55112e-17
592 1 204.438 129.146 -5.55112e-17
593 1 126.68 90.3016 -5.55112e-17
594 1 4.98379 70.5145 -5.55112e-17
595 1 30.1219 63.3602 -5.55112e-17
596 2 107.265 71.1054 -5.55112e-17
597 2 63.6747 105.248 -5.55112e-17
598 2 135.646 87.551 -5.55112e-17
599 2 97.0457 165.252 -5.55112e-17
600 2 49.1071 98.9523 -5.55112e-17
601 1 145.835 107.37 -5.55112e-17
602 1 173.735 52.1746 -5.55112e-17
603 2 216.937 159.746 -5.55112e-17
604 1 46.2714 179.449 -5.55112e-17
605 2 139.799 100.427 -5.55112e-17
606 2 150.078 99.456 -5.55112e-17
607 2 47.9556 169.858 -5.55112e-17
608 2 128.412 31.369 -5.55112e-17
609 1 77.5701 89.1056 -5.55112e-17
610 2 105.994 200.409 -5.55112e-17
611 1 1.54708 165.814 -5.55112e-17
612 1 207.325 117.87 -5.55112e-17
613 2 213.47 156.632 -5.55112e-17
614 1 202.759 30.403 -5.55112e-17
615 1 152.077 104.275 -5.55112e-17
616 2 145.909 177.779 -5.55112e-17
617 1 168.883 0.658449 -5.55112e-17
618 1 136.966 216.33 -5.55112e-17
619 1 164.075 160.597 -5.55112e-17
620 2 42.7785 89.0368 -5.55112e-17
621 2 203.578 77.6591 -5.55112e-17
622 2 144.576 154.406 -5.55112e-17
623 2 109.01 146.83 -5.55112e-17
624 1 106.983 177.105 -5.55112e-17
625 2 208.583 80.3289 -5.55112e-17
626 1 210.354 190.208 -5.55112e-17
627 2 195.103 192.983 -5.55112e-17
628 1 116.834 156.151 -5.55112e-17
629 1 30.1275 41.3531 -5.55112e-17
630 2 133.329 213.699 -5.55112e-17
631 2 144.512 114.9 -5.55112e-17
632 2 208.99 19.8595 -5.55112e-17
633 2 61.0209 132.02 -5.55112e-17
634 2 191.362 67.7384 -5.55112e-17
635 2 80.2421 71.8708 -5.55112e-17
636 1 88.1665 131.082 -5.55112e-17
637 1 217.209 153.022 -5.55112e-17
638 1 116.626 68.9913 -5.55112e-17
639 2 200.475 65.5724 -5.55112e-17
640 2 149.721 78.0412 -5.55112e-17
641 1 200.14 97.0554 -5.55112e-17
642 2 161.919 35.5889 -5.55112e-17
643 1 165.489 57.975 -5.55112e-17
644 2 139.282 154.994 -5.55112e-17
645 2 5.50314 75.3948 -5.55112e-17
646 1 170.34 142.503 -5.55112e-17
647 2 129.233 148.023 -5.55112e-17
648 2 190.513 211.504 -5.55112e-17
649 1 63.4865 145.472 -5.55112e-17
650 1 56.3855 153.15 -5.55112e-17
651 1 112.842 130.706 -5.55112e-17
652 2 8.26759 214.338 -5.55112e-17
653 2 195.557 45.0951 -5.55112e-17
654 1 208.473 164.912 -5.55112e-17
655 1 62.9646 47.1848 -5.55112e-17
656 1 199.047 10.1913 -5.55112e-17
657 1 124.951 120.515 -5.55112e-17
658 2 165.889 105.374 -5.55112e-17
659 2 101.658 137.042 -5.55112e-17
660 1 25.0166 12.1746 -5.55112e-17
661 2 15.5756 36.7304 -5.55112e-17
662 2 135.815 116.864 -5.55112e-17
663 1 163.71 112.719 -5.55112e-17
664 1 79.8915 138.397 -5.55112e-17
665 1 135.949 143.705 -5.55112e-17
666 1 202.927 185.221 -5.55112e-17
667 1 0.679986 117.073 -5.55112e-17
668 1 134.011 156.932 -5.55112e-17
669 1 107.256 160.675 -5.55112e-17
670 2 212.224 161.266 -5.55112e-17
671 1 3.41749 16.4382 -5.55112e-17
672 1 193.921 141.755 -5.55112e-17
673 2 47.2538 84.6212 -5.55112e-17
674 2 182.392 205.384 -5.55112e-17
675 2 152.548 2.10405 -5.55112e-17
676 1 180.164 159.785 -5.55112e-17
677 2 52.889 53.2822 -5.55112e-17
678 1 86.8216 113.464 -5.55112e-17
679 1 87.0986 61.6255 -5.55112e-17
680 2 72.1058 13.5823 -5.55112e-17
681 1 5.13267 9.44524 -5.55112e-17
682 1 141.495 171.525 -5.55112e-17
683 2 96.2625 123.711 -5.55112e-17
684 1 23.2815 180.375 -5.55112e-17
685 1 83.9815 206.355 -5.55112e-17
686 1 142.693 159.525 -5.55112e-17
687 1 107.673 53.2783 -5.55112e-17
688 1 151.644 97.3193 -5.55112e-17
689 2 10.8311 139.681 -5.55112e-17
690 1 48.3486 120.81 -5.55112e-17
691 2 64.8469 115.441 -5.55112e-17
692 2 180.521 178.658 -5.55112e-17
693 1 161.513 96.2464 -5.55112e-17
694 2 146.774 149.317 -5.55112e-17
695 2 188.367 36.3709 -5.55112e-17
696 2 31.4842 82.6283 -5.55112e-17
697 1 104.507 35.2842 -5.55112e-17
698 2 41.3603 18.2141 -5.55112e-17
699 1 57.6583 202.961 -5.55112e-17
700 2 17.9103 126.262 -5.55112e-17
701 2 29.261 65.8942 -5.55112e-17
702 1 160.281 9.54716 -5.55112e-17
703 1 195.8 60.7765 -5.55112e-17
704 1 159.579 122.71 -5.55112e-17
705 1 43.6209 120.275 -5.55112e-17
706 1 75.4266 161.49 -5.55112e-17
707 1 182.175 66.7774 -5.55112e-17
708 2 195.613 101.957 -5.55112e-17
709 1 54.1734 160.151 -5.55112e-17
710 2 92.2652 16.7629 -5.55112e-17
711 2 0.594485 141.602 -5.55112e-17
712 1 84.4712 213.697 -5.55112e-17
713 1 5.01891 152.49 -5.55112e-17
714 2 145.172 147.062 -5.55112e-17
715 2 132.585 87.0799 -5.55112e-17
716 1 87.1111 58.8658 -5.55112e-17
717 1 14.7576 61.379 -5.55112e-17
718 2 78.4304 99.4808 -5.55112e-17
719 1 69.1048 202.5 -5.55112e-17
720 2 51.8589 197.204 -5.55112e-17
721 2 44.1351 213.23 -5.55112e-17
722 2 65.3801 138.321 -5.55112e-17
723 2 15.6083 165.596 -5.55112e-17
724 2 202.506 107.837 -5.55112e-17
725 2 21.5217 50.4334 -5.55112e-17
726 2 178.037 124.032 -5.55112e-17
727 2 35.4395 109.902 -5.55112e-17
728 1 176.54 77.3592 -5.55112e-17
729 2 166.086 134.272 -5.55112e-17
730 2 175.1 94.4974 -5.55112e-17
731 1 10.0524 23.5446 -5.55112e-17
732 2 98.0054 86.6665 -5.55112e-17
733 2 147.924 146.331 -5.55112e-17
734 2 59.3182 192.103 -5.55112e-17
735 2 148.873 71.8968 -5.55112e-17
736 1 182.236 176.711 -5.55112e-17
737 2 48.502 39.3868 -5.55112e-17
738 2 71.9181 207.543 -5.55112e-17
739 2 186.255 131.564 -5.55112e-17
740 2 40.6798 115.674 -5.55112e-17
741 2 200.762 114.153 -5.55112e-17
742 1 71.764 98.6943 -5.55112e-17
743 2 78.1957 76.1236 -5.55112e-17
744 1 147.154 50.0641 -5.55112e-17
745 2 15.3434 75.8134 -5.55112e-17
746 1 0.14765 121.59 -5.55112e-17
747 1 98.7526 162.775 -5.55112e-17
748 2 70.0753 197.616 -5.55112e-17
749 1 213.595 166.249 -5.55112e-17
750 1 139.653 147.603 -5.55112e-17
751 1 142.911 89.0147 -5.55112e-17
752 2 195.124 168.448 -5.55112e-17
753 1 37.037 180.486 -5.55112e-17
754 2 65.5332 80.8546 -5.55112e-17
755 1 6.03714 80.9567 -5.55112e-17
756 2 178.721 58.2625 -5.55112e-17
757 1 110.407 15.1275 -5.55112e-17
758 2 100.282 28.5979 -5.55112e-17
759 1 95.5035 133.543 -5.55112e-17
760 1 171.434 61.6096 -5.55112e-17
761 2 213.559 101.367 -5.55112e-17
762 1 178.644 105.742 -5.55112e-17
763 2 6.21309 157.692 -5.55112e-17
764 2 42.9778 188.387 -5.55112e-17
765 1 22.0194 160.407 -5.55112e-17
766 2 100.009 48.0129 -5.55112e-17
767 2 206.6 148.921 -5.55112e-17
768 2 71.9709 62.3177 -5.55112e-17
769 2 188.332 98.2058 -5.55112e-17
770 1 134.028 18.3772 -5.55112e-17
771 1 64.0936 63.3876 -5.55112e-17
772 1 128.826 0.322941 -5.55112e-17
773 2 166.75 171.776 -5.55112e-17
774 1 88.0524 86.6976 -5.55112e-17
775 1 102.117 75.5255 -5.55112e-17
776 2 192.811 103.461 -5.55112e-17
777 2 42.4137 80.1802 -5.55112e-17
778 1 83.455 12.9312 -5.55112e-17
779 1 47.0988 61.66 -5.55112e-17
780 2 83.1899 50.2609 -5.55112e-17
781 1 25.9343 171.864 -5.55112e-17
782 2 123.078 170.498 -5.55112e-17
783 1 74.3555 61.358 -5.55112e-17
784 2 96.7177 110.101 -5.55112e-17
785 1 204.389 83.0797 -5.55112e-17
786 1 41.4149 6.88938 -5.55112e-17
787 2 37.9352 208.542 -5.55112e-17
788 2 164.828 180.059 -5.55112e-17
789 2 18.8177 147.333 -5.55112e-17
790 2 77.8141 7.91109 -5.55112e-17
791 2 186.615 53.8902 -5.55112e-17
792 1 213.238 132.853 -5.55112e-17
793 1 97.2071 171.312 -5.55112e-17
794 2 209.708 6.42119 -5.55112e-17
795 2 10.3847 191.771 -5.55112e-17
796 1 69.8497 215.157 -5.55112e-17
797 1 46.1303 32.5947 -5.55112e-17
798 1 213.14 56.0076 -5.55112e-17
799 2 105.934 155.486 -5.55112e-17
800 1 56.59 37.1209 -5.55112e-17
801 2 68.0536 84.8273 -5.55112e-17
802 1 91.0153 216.448 -5.55112e-17
803 1 143.076 24.6584 -5.55112e-17
804 1 210.539 125.243 -5.55112e-17
805 2 183.726 117.892 -5.55112e-17
806 2 178.369 158.059 -5.55112e-17
807 2 208.446 29.759 -5.55112e-17
808 2 76.2872 144.773 -5.55112e-17
809 1 176.066 63.2398 -5.55112e-17
810 2 24.0378 173.758 -5.55112e-17
811 2 180.437 55.7693 -5.55112e-17
812 1 122.179 184.96 -5.55112e-17
813 1 22.1789 95.5159 -5.55112e-17
814 1 2.54266 205.114 -5.55112e-17
815 1 145.968 32.0169 -5.55112e-17
816 1 206.737 51.1861 -5.55112e-17
817 2 63.0316 70.9872 -5.55112e-17
818 2 29.7974 123.251 -5.55112e-17
819 2 210.781 68.3368 -5.55112e-17
820 1 9.38129 59.2634 -5.55112e-17
821 1 64.3672 58.0286 -5.55112e-17
822 2 131.552 34.554 -5.55112e-17
823 1 183.836 90.437 -5.55112e-17
824 1 175.781 90.1258 -5.55112e-17
825 1 160.264 190.599 -5.55112e-17
826 2 178.31 82.2433 -5.55112e-17
827 2 102.6 26.975 -5.55112e-17
828 1 50.3652 91.4307 -5.55112e-17
829 2 127.283 92.8272 -5.55112e-17
830 1 3.81169 156.887 -5.55112e-17
831 2 183.371 217.776 -5.55112e-17
832 2 26.6752 52.4507 -5.55112e-17
833 2 96.6215 42.5111 -5.55112e-17
834 1 71.0815 164.181 -5.55112e-17
835 1 185.256 141.425 -5.55112e-17
836 1 153.209 69.5626 -5.55112e-17
837 2 167.971 92.3835 -5.55112e-17
838 2 92.4141 27.1786 -5.55112e-17
839 1 38.8073 32.1182 -5.55112e-17
840 2 14.0567 117.325 -5.55112e-17
841 2 201.797 10.3036 -5.55112e-17
842 1 174.193 156.957 -5.55112e-17
843 1 205.176 30.0984 -5.55112e-17
844 2 8.6102 25.7089 -5.55112e-17
845 1 47.1359 151.33 -5.55112e-17
846 2 127.43 211.219 -5.55112e-17
847 1 88.4176 143.04 -5.55112e-17
848 2 112.842 8.74032 -5.55112e-17
849 1 24.6872 33.21 -5.55112e-17
850 2 59.6829 67.3126 -5.55112e-17
851 2 216.372 30.8705 -5.55112e-17
852 1 137.438 182.798 -5.55112e-17
853 1 185.766 105.137 -5.55112e-17
854 2 104.527 144.547 -5.55112e-17
855 2 165.43 120.823 -5.55112e-17
856 1 77.5303 160.014 -5.55112e-17