ITEM: TIMESTEP
0
ITEM: NUMBER OF ATOMS
7200
ITEM: BOX BOUNDS xy xz yz pp pp pp
0.0000000000000000e+00 2.1900000000000000e+02 0.0000000000000000e+00
0.0000000000000000e+00 2.1900000000000000e+02 0.0000000000000000e+00
-3.6499999999999999e-01 3.6499999999999999e-01 0.0000000000000000e+00
ITEM: ATOMS id type x y z
1 1 129.891 173.229 -5.55112e-17
2 2 78.809 71.6504 -5.55112e-17
3 2 85.056 190.299 -5.55112e-17
4 1 93.5529 108.112 -5.55112e-17
5 1 20.0821 137.63 -5.55112e-17
6 1 10.858 35.8674 -5.55112e-17
7 2 24.5026 10.1891 -5.55112e-17
8 2 198.011 115.871 -5.55112e-17
9 1 103.03 147.868 -5.55112e-17
10 2 166.157 117.724 -5.55112e-17
11 2 31.1511 13.2876 -5.55112e-17
12 1 173.948 174.19 -5.55112e-17
13 2 107.57 65.2401 -5.55112e-17
14 1 202.43 172.293 -5.55112e-17
15 2 162.975 131.075 -5.55112e-17
16 2 150.153 41.5392 -5.55112e-17
17 1 52.3249 158.873 -5.55112e-17
18 2 23.9599 41.4227 -5.55112e-17
19 1 94.1563 38.3667 -5.55112e-17
20 1 204.377 186.005 -5.55112e-17
21 1 150.008 135.828 -5.55112e-17
22 2 159.516 18.7248 -5.55112e-17
23 2 42.4136 172.305 -5.55112e-17
24 2 28.9925 211.113 -5.55112e-17
25 2 150.153 165.084 -5.55112e-17
26 2 123.012 133.799 -5.55112e-17
27 1 26.1137 188.69 -5.55112e-17
28 2 46.6487 25.3195 -5.55112e-17
29 2 7.63788 204.732 -5.55112e-17
30 2 7.96724 170.753 -5.55112e-17
31 2 26.3197 43.2918 -5.55112e-17
32 1 46.6426 148.921 -5.55112e-17
33 2 162.581 62.2059 -5.55112e-17
34 2 70.5165 96.5897 -5.55112e-17
35 2 197.504 59.6821 -5.55112e-17
36 1 183.518 83.755 -5.55112e-17
37 1 130.43 140.635 -5.55112e-17
38 2 132.994 96.9418 -5.55112e-17
39 1 165.47 189.517 -5.55112e-17
40 2 147.453 194.874 -5.55112e-17
41 1 103.941 48.9863 -5.55112e-17
42 1 110.528 147.934 -5.55112e-17
43 1 48.7562 81.787 -5.55112e-17
44 1 144.932 12.3241 -5.55112e-17
45 2 122.632 103.395 -5.55112e-17
46 1 156.785 103.218 -5.55112e-17
47 2 185.239 176.206 -5.55112e-17
48 2 214.964 10.5571 -5.55112e-17
49 1 198.395 213.655 -5.55112e-17
50 2 97.8695 110.179 -5.55112e-17
51 1 195.446 115.571 -5.55112e-17
52 1 176.789 53.7636 -5.55112e-17
53 2 17.742 76.0946 -5.55112e-17
54 1 13.926 4.14246 -5.55112e-17
55 2 185.447 207.873 -5.55112e-17
56 1 161.338 14.5466 -5.55112e-17
57 2 85.4451 37.8184 -5.55112e-17
58 1 23.2787 218.814 -5.55112e-17
59 1 92.5143 52.1048 -5.55112e-17
60 2 213.951 7.30515 -5.55112e-17
61 1 118.155 201.267 -5.55112e-17
62 1 98.1591 164.079 -5.55112e-17
63 2 134.181 201.388 -5.55112e-17
64 1 149.525 64.2961 -5.55112e-17
65 2 163.399 190.937 -5.55112e-17
66 2 121.824 19.5486 -5.55112e-17
67 2 3.20325 58.2269 -5.55112e-17
68 1 65.2792 117.165 -5.55112e-17
69 2 184.125 130.068 -5.55112e-17
70 1 136.974 82.0784 -5.55112e-17
71 1 82.7407 30.1552 -5.55112e-17
72 2 6.34208 98.814 -5.55112e-17
73 2 213.732 218.363 -5.55112e-17
74 2 117.364 74.5672 -5.55112e-17
75 1 42.9997 131.94 -5.55112e-17
76 2 1.91129 118.871 -5.55112e-17
77 2 74.9753 111.75 -5.55112e-17
78 1 127.591 192.359 -5.55112e-17
79 2 58.7607 212.097 -5.55112e-17
80 1 35.1731 9.42705 -5.55112e-17
81 1 122.5 4.56809 -5.55112e-17
82 1 158.208 24.0372 -5.55112e-17
83 1 148.7 175.029 -5.55112e-17
84 2 68.7154 174.901 -5.55112e-17
85 2 216.409 152.652 -5.55112e-17
86 2 133.386 105.499 -5.55112e-17
87 2 7.95878 0.511228 -5.55112e-17
88 1 209.206 202.684 -5.55112e-17
89 2 34.1943 41.2205 -5.55112e-17
90 2 132.928 12.8949 -5.55112e-17
91 2 61.336 154.411 -5.55112e-17
92 1 5.40147 7.99355 -5.55112e-17
93 2 160.595 112.041 -5.55112e-17
94 2 97.4206 51.1624 -5.55112e-17
95 1 154.151 58.9629 -5.55112e-17
96 2 125.718 51.2956 -5.55112e-17
97 2 54.9772 52.4304 -5.55112e-17
98 2 126.336 160.907 -5.55112e-17
99 1 191.594 121.646 -5.55112e-17
100 2 186.692 167.951 -5.55112e-17
101 1 1.27586 157.358 -5.55112e-17
102 1 212.033 148.676 -5.55112e-17
103 2 152.967 8.8837 -5.55112e-17
104 2 142.349 82.1484 -5.55112e-17
105 1 189.357 217.389 -5.55112e-17
106 1 101.826 48.8762 -5.55112e-17
107 1 71.9272 41.186 -5.55112e-17
108 1 53.6067 44.1443 -5.55112e-17
109 2 199.656 187.279 -5.55112e-17
110 2 76.5592 59.8462 -5.55112e-17
111 1 104.76 97.1652 -5.55112e-17
112 2 78.523 38.9665 -5.55112e-17
113 1 117.72 37.344 -5.55112e-17
114 1 72.3053 67.3757 -5.55112e-17
115 2 82.8889 192.101 -5.55112e-17
116 2 166.047 57.1966 -5.55112e-17
117 1 210.443 211.826 -5.55112e-17
118 1 204.532 173.783 -5.55112e-17
119 2 114.666 67.7105 -5.55112e-17
120 2 108.075 37.152 -5.55112e-17
121 1 24.4856 113.487 -5.55112e-17
122 2 153.525 37.5228 -5.55112e-17
123 2 4.11588 63.7726 -5.55112e-17
124 1 175.208 95.5819 -5.55112e-17
125 1 207.202 132.336 -5.55112e-17
126 2 2.94651 202.172 -5.55112e-17
127 2 175.783 25.7593 -5.55112e-17
128 1 180.61 190.478 -5.55112e-17
129 1 184.573 156.249 -5.55112e-17
130 2 118.083 134.27 -5.55112e-17
131 1 213.27 1.87354 -5.55112e-17
132 1 84.3437 101.81 -5.55112e-17
133 1 166.365 108.948 -5.55112e-17
134 1 145.643 66.1175 -5.55112e-17
135 2 181.491 179.716 -5.55112e-17
136 1 79.9178 62.2084 -5.55112e-17
137 1 212.511 130.787 -5.55112e-17
138 2 181.562 204.506 -5.55112e-17
139 1 148.187 216.303 -5.55112e-17
140 1 172.576 102.174 -5.55112e-17
141 1 72.8587 178.948 -5.55112e-17
142 1 6.99696 15.4424 -5.55112e-17
143 1 173.588 179.809 -5.55112e-17
144 1 57.9218 45.892 -5.55112e-17
145 2 164.051 108.047 -5.55112e-17
146 1 97.8762 199.749 -5.55112e-17
147 2 211.71 173.266 -5.55112e-17
148 1 117.862 148.887 -5.55112e-17
149 1 55.176 50.065 -5.55112e-17
150 2 113.007 177.749 -5.55112e-17
151 1 218.865 106.627 -5.55112e-17
152 1 203.86 190.675 -5.55112e-17
153 2 0.255964 148.385 -5.55112e-17
154 1 140.215 109.122 -5.55112e-17
155 2 8.12225 154.175 -5.55112e-17
156 2 101.831 192.95 -5.55112e-17
157 2 120.287 130.487 -5.55112e-17
158 2 136.16 214.211 -5.55112e-17
159 2 159.115 214.47 -5.55112e-17
160 2 214.373 147.733 -5.55112e-17
161 2 159.986 90.9157 -5.55112e-17
162 1 172.407 121.97 -5.55112e-17
163 1 115.85 81.0582 -5.55112e-17
164 2 115.841 165.782 -5.55112e-17
165 1 183.919 212.546 -5.55112e-17
166 2 41.598 160.675 -5.55112e-17
167 1 139.218 65.6443 -5.55112e-17
168 1 31.9769 149.429 -5.55112e-17
169 2 59.542 8.12912 -5.55112e-17
170 1 71.133 155.877 -5.55112e-17
171 1 199.524 7.16784 -5.55112e-17
172 1 201.6 66.3716 -5.55112e-17
173 1 135.537 191.428 -5.55112e-17
174 2 113.702 207.952 -5.55112e-17
175 2 83.1974 92.4236 -5.55112e-17
176 1 151.775 27.6832 -5.55112e-17
177 2 76.1988 41.4243 -5.55112e-17
178 1 15.0645 64.8164 -5.55112e-17
179 2 206.104 168.778 -5.55112e-17
180 1 70.5356 197.437 -5.55112e-17
181 1 133.495 125.191 -5.55112e-17
182 1 125.807 8.73117 -5.55112e-17
183 1 28.055 23.449 -5.55112e-17
184 2 27.8749 81.1985 -5.55112e-17
185 2 182.495 197.845 -5.55112e-17
186 2 157.534 203.373 -5.55112e-17
187 2 36.5895 215.447 -5.55112e-17
188 2 157.072 129.243 -5.55112e-17
189 1 114.404 101.537 -5.55112e-17
190 1 41.3067 209.627 -5.55112e-17
191 2 59.6391 169.22 -5.55112e-17
192 2 155.311 78.0667 -5.55112e-17
193 1 50.1637 55.5834 -5.55112e-17
194 1 79.438 45.9805 -5.55112e-17
195 2 217.768 15.2518 -5.55112e-17
196 1 213.718 97.3383 -5.55112e-17
197 2 135.777 86.7307 -5.55112e-17
198 2 22.788 58.4523 -5.55112e-17
199 2 119.956 5.63041 -5.55112e-17
200 2 172.691 195.924 -5.55112e-17
201 2 124.504 208.307 -5.55112e-17
202 1 158.554 113.768 -5.55112e-17
203 1 20.0654 64.225 -5.55112e-17
204 2 172.144 64.2287 -5.55112e-17
205 2 73.7895 39.798 -5.55112e-17
206 2 37.131 86.4625 -5.55112e-17
207 1 95.2127 201.316 -5.55112e-17
208 2 20.2887 195.333 -5.55112e-17
209 2 31.465 46.3349 -5.55112e-17
210 1 200.86 81.0825 -5.55112e-17
211 1 75.1006 57.3797 -5.55112e-17
212 1 182.108 116.86 -5.55112e-17
213 1 103.459 34.0393 -5.55112e-17
214 2 162.869 49.7774 -5.55112e-17
215 1 149.371 55.9515 -5.55112e-17
216 1 203.804 29.9399 -5.55112e-17
217 1 8.88665 102.808 -5.55112e-17
218 2 67.9857 29.4194 -5.55112e-17
219 2 143.202 128.664 -5.55112e-17
220 1 10.6092 194.666 -5.55112e-17
221 2 132.938 203.561 -5.55112e-17
222 1 68.8197 177.338 -5.55112e-17
223 1 8.70745 92.3448 -5.55112e-17
224 2 70.9276 35.6318 -5.55112e-17
225 2 184.013 93.6025 -5.55112e-17
226 1 7.41138 50.1287 -5.55112e-17
227 2 108.597 202.403 -5.55112e-17
228 2 86.0982 109.066 -5.55112e-17
229 1 34.9767 179.324 -5.55112e-17
230 1 44.7868 18.9621 -5.55112e-17
231 2 59.5408 145.408 -5.55112e-17
232 1 216.112 66.6424 -5.55112e-17
233 2 180.136 89.8529 -5.55112e-17
234 1 216.513 40.3216 -5.55112e-17
235 1 29.3288 60.985 -5.55112e-17
236 2 126.685 180.417 -5.55112e-17
237 2 135.941 131.799 -5.55112e-17
238 2 130.755 48.8575 -5.55112e-17
239 1 204.846 26.0432 -5.55112e-17
240 1 139.164 218.539 -5.55112e-17
241 2 123.783 88.0177 -5.55112e-17
242 1 182.285 162.633 -5.55112e-17
243 2 15.7426 99.2452 -5.55112e-17
244 2 78.5791 128.897 -5.55112e-17
245 1 190.721 79.153 -5.55112e-17
246 2 18.5056 82.6206 -5.55112e-17
247 2 137.499 14.2204 -5.55112e-17
248 1 87.2628 28.3071 -5.55112e-17
249 1 163.59 11.83 -5.55112e-17
250 1 158.966 7.90465 -5.55112e-17
251 2 56.1223 180.256 -5.55112e-17
252 1 36.3503 68.3582 -5.55112e-17
253 2 169.646 163.897 -5.55112e-17
254 2 32.9214 144.76 -5.55112e-17
255 2 151.55 186.306 -5.55112e-17
256 1 57.7581 81.7015 -5.55112e-17
257 2 136.444 10.2244 -5.55112e-17
258 1 203.613 97.739 -5.55112e-17
259 2 30.4624 190.729 -5.55112e-17
260 1 203.94 126.983 -5.55112e-17
261 2 64.5479 96.3453 -5.55112e-17
262 2 121.321 78.7318 -5.55112e-17
263 2 208.904 149.788 -5.55112e-17
264 1 179.909 197.349 -5.55112e-17
265 1 174.868 6.32844 -5.55112e-17
266 1 23.2645 103.79 -5.55112e-17
267 2 96.6579 217.53 -5.55112e-17
268 1 177.297 14.466 -5.55112e-17
269 2 34.151 216.906 -5.55112e-17
270 2 201.315 98.8921 -5.55112e-17
271 2 74.8554 89.1532 -5.55112e-17
272 1 74.8734 168.807 -5.55112e-17
273 1 202.418 90.1488 -5.55112e-17
274 1 74.5547 137.89 -5.55112e-17
275 1 45.1706 41.0158 -5.55112e-17
276 1 94.0259 190.572 -5.55112e-17
277 1 67.6451 179.619 -5.55112e-17
278 2 69.2504 186.754 -5.55112e-17
279 2 179.721 166.492 -5.55112e-17
280 1 171.965 126.936 -5.55112e-17
281 2 4.11091 128.073 -5.55112e-17
282 2 85.339 12.4834 -5.55112e-17
283 2 128.445 95.4331 -5.55112e-17
284 1 149.093 119.559 -5.55112e-17
285 1 12.4346 120.954 -5.55112e-17
286 2 28.8506 41.1873 -5.55112e-17
287 2 74.0836 5.78628 -5.55112e-17
288 1 62.0276 111.189 -5.55112e-17
289 2 201.976 109.368 -5.55112e-17
290 1 43.7873 39.4131 -5.55112e-17
291 2 136.122 148.225 -5.55112e-17
292 1 32.861 76.1272 -5.55112e-17
293 1 104.21 156.695 -5.55112e-17
294 1 161.789 128.449 -5.55112e-17
295 2 42.6514 204.23 -5.55112e-17
296 1 76.5809 9.79708 -5.55112e-17
297 1 115.031 128.13 -5.55112e-17
298 2 21.2053 135.378 -5.55112e-17
299 1 85.3833 168.342 -5.55112e-17
300 2 169.713 140.189 -5.55112e-17
301 2 156.857 1.10485 -5.55112e-17
302 2 124.27 139.608 -5.55112e-17
303 1 157.566 120.901 -5.55112e-17
304 1 137.622 84.4154 -5.55112e-17
305 1 200.264 142.498 -5.55112e-17
306 2 206.698 181.665 -5.55112e-17
307 2 193.537 214.78 -5.55112e-17
308 2 113.467 159.281 -5.55112e-17
309 1 167.483 51.2387 -5.55112e-17
310 1 94.7006 97.9354 -5.55112e-17
311 1 50.0734 140.846 -5.55112e-17
312 2 74.0037 96.4781 -5.55112e-17
313 2 211.902 14.6612 -5.55112e-17
314 1 173.488 57.1184 -5.55112e-17
315 2 147.375 135.905 -5.55112e-17
316 1 45.3299 164.205 -5.55112e-17
317 1 3.72907 120.82 -5.55112e-17
318 1 116.943 113.349 -5.55112e-17
319 2 218.446 35.016 -5.55112e-17
320 1 43.7257 165.68 -5.55112e-17
321 1 131.566 138.388 -5.55112e-17
322 1 146.093 155.498 -5.55112e-17
323 2 89.6185 194.7 -5.55112e-17
324 2 162.734 120.758 -5.55112e-17
325 2 55.1859 7.75315 -5.55112e-17
326 1 39.3043 124.092 -5.55112e-17
327 1 86.4596 127.165 -5.55112e-17
328 2 7.6732 200.096 -5.55112e-17
329 2 154.299 6.47526 -5.55112e-17
330 2 130.074 98.2688 -5.55112e-17
331 2 102.429 36.6298 -5.55112e-17
332 2 210.346 193.318 -5.55112e-17
333 2 92.7536 155.97 -5.55112e-17
334 2 66.481 182.334 -5.55112e-17
335 1 68.5985 18.4822 -5.55112e-17
336 2 80.8574 176.594 -5.55112e-17
337 2 95.4301 177.05 -5.55112e-17
338 1 161.214 16.845 -5.55112e-17
339 2 34.2801 124.754 -5.55112e-17
340 2 89.5962 204.768 -5.55112e-17
341 2 210.179 147.011 -5.55112e-17
342 2 31.6574 16.4911 -5.55112e-17
343 2 201.294 180.828 -5.55112e-17
344 1 204.798 19.6997 -5.55112e-17
345 2 135.005 174.471 -5.55112e-17
346 2 38.2989 132.152 -5.55112e-17
347 1 185.59 182.945 -5.55112e-17
348 1 131.296 71.2483 -5.55112e-17
349 2 3.92735 47.3586 -5.55112e-17
350 2 193.101 63.8485 -5.55112e-17
351 1 136.895 97.4046 -5.55112e-17
352 1 213.341 90.3391 -5.55112e-17
353 2 137.13 47.0415 -5.55112e-17
354 2 41.3046 25.0632 -5.55112e-17
355 1 135.07 186.557 -5.55112e-17
356 2 210.774 83.0083 -5.55112e-17
357 1 150.67 203.72 -5.55112e-17
358 1 188.303 179.884 -5.55112e-17
359 1 87.6009 185.616 -5.55112e-17
360 1 2.95703 0.0881754 -5.55112e-17
361 2 17.9825 148.011 -5.55112e-17
362 2 9.2389 12.7607 -5.55112e-17
363 1 100.282 4.5765 -5.55112e-17
364 2 206.186 124.952 -5.55112e-17
365 1 28.5731 63.5483 -5.55112e-17
366 1 107.64 142.996 -5.55112e-17
367 1 174.644 186.991 -5.55112e-17
368 1 31.6679 40.8356 -5.55112e-17
369 2 73.3425 31.0046 -5.55112e-17
370 1 112.829 152.609 -5.55112e-17
371 2 84.6634 48.5111 -5.55112e-17
372 1 179.229 169.183 -5.55112e-17
373 2 155.509 200.952 -5.55112e-17
374 2 213.443 201.369 -5.55112e-17
375 1 21.3156 20.4299 -5.55112e-17
376 1 118.952 217.656 -5.55112e-17
377 2 140.402 153.803 -5.55112e-17
378 2 192.059 166.131 -5.55112e-17
379 2 7.19173 127.5 -5.55112e-17
380 1 12.5273 187.666 -5.55112e-17
381 1 37.0695 164.09 -5.55112e-17
382 1 106.415 29.547 -5.55112e-17
383 1 64.0691 67.3288 -5.55112e-17
384 2 13.7221 123.342 -5.55112e-17
385 1 118.461 3.34672 -5.55112e-17
386 2 21.7672 8.93888 -5.55112e-17
387 1 28.2983 169.184 -5.55112e-17
388 1 6.07826 198.056 -5.55112e-17
389 2 3.21794 30.6694 -5.55112e-17
390 1 8.47598 202.319 -5.55112e-17
391 1 132.359 180.754 -5.55112e-17
392 2 55.2197 133.708 -5.55112e-17
393 2 66.98 88.7023 -5.55112e-17
394 1 180.895 70.384 -5.55112e-17
395 1 36.7501 27.7656 -5.55112e-17
396 2 201.885 116.972 -5.55112e-17
397 1 163.038 179.346 -5.55112e-17
398 2 206.432 21.7403 -5.55112e-17
399 2 176.227 181.611 -5.55112e-17
400 2 182.385 4.70167 -5.55112e-17
401 2 95.5591 32.8864 -5.55112e-17
402 1 12.543 153.446 -5.55112e-17
403 1 140.238 104.596 -5.55112e-17
404 2 24.6048 176.97 -5.55112e-17
405 1 108.504 67.7243 -5.55112e-17
406 2 205.721 140.801 -5.55112e-17
407 1 68.1096 64.0218 -5.55112e-17
408 1 61.0821 106.741 -5.55112e-17
409 2 157.272 6.05943 -5.55112e-17
410 2 144.112 48.7336 -5.55112e-17
411 1 128.041 79.8582 -5.55112e-17
412 1 36.5485 34.3574 -5.55112e-17
413 1 141.47 8.39738 -5.55112e-17
414 2 218.103 129.386 -5.55112e-17
415 1 176.957 139.474 -5.55112e-17
416 1 142.137 31.1746 -5.55112e-17
417 2 12.2484 70.291 -5.55112e-17
418 2 149.961 77.0267 -5.55112e-17
419 2 20.9187 1.09006 -5.55112e-17
420 2 67.8077 82.3439 -5.55112e-17
421 1 158.911 163.503 -5.55112e-17
422 1 95.5987 149.598 -5.55112e-17
423 2 179.115 82.8747 -5.55112e-17
424 2 139.185 134.915 -5.55112e-17
425 2 23.7435 98.3069 -5.55112e-17
426 1 165.684 49.4957 -5.55112e-17
427 2 54.0143 27.18 -5.55112e-17
428 1 20.7916 75.2676 -5.55112e-17
429 2 24.3805 191.124 -5.55112e-17
430 2 160.574 205.142 -5.55112e-17
431 1 170.936 203.82 -5.55112e-17
432 2 100.606 169.11 -5.55112e-17
433 1 177.374 75.4637 -5.55112e-17
434 1 80.377 5.75277 -5.55112e-17
435 1 3.39039 144.964 -5.55112e-17
436 2 86.3257 72.3991 -5.55112e-17
437 2 201.441 51.4617 -5.55112e-17
438 2 146.333 38.1565 -5.55112e-17
439 2 189.174 74.027 -5.55112e-17
440 2 81.4635 8.32461 -5.55112e-17
441 1 88.3632 114.232 -5.55112e-17
442 1 210.024 161.897 -5.55112e-17
443 2 27.4102 176.449 -5.55112e-17
444 1 93.5386 102.925 -5.55112e-17
445 1 197.876 14.3108 -5.55112e-17
446 2 173.501 18.3478 -5.55112e-17
447 2 142.735 38.7906 -5.55112e-17
448 2 135.33 209.052 -5.55112e-17
449 1 16.4145 81.4386 -5.55112e-17
450 1 28.2004 59.183 -5.55112e-17
451 1 127.607 98.3973 -5.55112e-17
452 2 22.7242 18.6744 -5.55112e-17
453 1 165.433 202.696 -5.55112e-17
454 1 95.8003 120.066 -5.55112e-17
455 2 211.651 196.354 -5.55112e-17
456 1 217.452 199.4 -5.55112e-17
457 2 19.7347 59.2406 -5.55112e-17
458 2 70.4458 84.6269 -5.55112e-17
459 2 74.0473 166.194 -5.55112e-17
460 1 110.253 110.972 -5.55112e-17
461 1 23.6706 79.7128 -5.55112e-17
462 1 183.846 63.2192 -5.55112e-17
463 2 119.986 50.984 -5.55112e-17
464 2 65.1642 83.7065 -5.55112e-17
465 1 47.773 201.672 -5.55112e-17
466 2 19.1612 155.638 -5.55112e-17
467 2 100.02 53.022 -5.55112e-17
468 2 54.7227 155.327 -5.55112e-17
469 2 161.397 193.654 -5.55112e-17
470 2 102.91 214.556 -5.55112e-17
471 2 14.0465 85.7908 -5.55112e-17
472 2 88.6125 134.089 -5.55112e-17
473 2 183.369 125.322 -5.55112e-17
474 2 138.581 127.502 -5.55112e-17
475 1 82.8951 160.954 -5.55112e-17
476 2 154.85 93.631 -5.55112e-17
477 1 122.386 31.3405 -5.55112e-17
478 1 176.64 59.2086 -5.55112e-17
479 2 63.7737 23.1219 -5.55112e-17
480 1 152.737 126.659 -5.55112e-17
481 1 123.331 1.82015 -5.55112e-17
482 2 83.6705 105.013 -5.55112e-17
483 1 64.9519 188.808 -5.55112e-17
484 1 15.0865 41.6509 -5.55112e-17
485 2 60.365 81.1317 -5.55112e-17
486 1 37.8237 141.224 -5.55112e-17
487 1 165.162 111.062 -5.55112e-17
488 1 146.155 14.9201 -5.55112e-17
489 1 22.3386 138.745 -5.55112e-17
490 1 147.393 60.9202 -5.55112e-17
491 1 142.202 142.868 -5.55112e-17
492 2 150.027 44.937 -5.55112e-17
493 1 86.9796 139.654 -5.55112e-17
494 2 79.8849 48.7038 -5.55112e-17
495 1 130.179 53.8627 -5.55112e-17
496 1 98.5808 57.9818 -5.55112e-17
497 1 160.432 93.4138 -5.55112e-17
498 2 74.251 148.566 -5.55112e-17
499 2 40.6446 199.923 -5.55112e-17
500 2 90.9058 151.045 -5.55112e-17
501 2 17.4309 40.4767 -5.55112e-17
502 2 171.79 13.126 -5.55112e-17
503 2 38.8877 39.758 -5.55112e-17
504 2 183.366 69.3254 -5.55112e-17
505 2 54.8921 216.692 -5.55112e-17
506 1 20.3496 205.941 -5.55112e-17
507 2 186.69 23.2232 -5.55112e-17
508 1 48.7417 15.5568 -5.55112e-17
509 1 38.0107 66.9992 -5.55112e-17
510 1 64.0054 112.94 -5.55112e-17
511 2 61.9884 68.8836 -5.55112e-17
512 1 55.865 22.9676 -5.55112e-17
513 2 86.9207 157.829 -5.55112e-17
514 2 26.5617 144.235 -5.55112e-17
515 1 109.058 96.1246 -5.55112e-17
516 2 3.93142 71.9777 -5.55112e-17
517 1 115.242 30.2576 -5.55112e-17
518 2 130.289 101.545 -5.55112e-17
519 1 120.315 188.115 -5.55112e-17
520 2 184.903 139.936 -5.55112e-17
521 2 62.958 45.4943 -5.55112e-17
522 1 159.839 100.252 -5.55112e-17
523 1 38.074 198.829 -5.55112e-17
524 2 153.708 196.689 -5.55112e-17
525 2 209.929 65.3378 -5.55112e-17
526 2 81.8948 96.9425 -5.55112e-17
527 1 91.3688 121.959 -5.55112e-17
528 1 131.401 195.04 -5.55112e-17
529 2 42.8062 69.3181 -5.55112e-17
530 2 24.5943 77.094 -5.55112e-17
531 2 150.07 61.8182 -5.55112e-17
532 1 55.7924 185.551 -5.55112e-17
533 2 202.252 19.8303 -5.55112e-17
534 1 96.2036 22.8294 -5.55112e-17
535 1 53.5581 2.38915 -5.55112e-17
536 2 60.039 13.8626 -5.55112e-17
537 1 140.38 156.261 -5.55112e-17
538 1 93.0712 93.7157 -5.55112e-17
539 2 182.455 176.65 -5.55112e-17
540 1 21.9536 143.315 -5.55112e-17
541 1 62.8216 48.1465 -5.55112e-17
542 1 212.424 9.65988 -5.55112e-17
543 2 170.682 160.489 -5.55112e-17
544 1 107.608 162.916 -5.55112e-17
545 1 58.4942 125.122 -5.55112e-17
546 2 118.259 86.5625 -5.55112e-17
547 1 217.204 187.431 -5.55112e-17
548 1 205.29 113.329 -5.55112e-17
549 2 74.8809 119.026 -5.55112e-17
550 2 43.555 44.4209 -5.55112e-17
551 2 160.155 28.2692 -5.55112e-17
552 1 69.7423 2.92853 -5.55112e-17
553 2 198.502 46.4777 -5.55112e-17
554 2 189.406 39.5901 -5.55112e-17
555 2 10.8152 101.019 -5.55112e-17
556 1 181.82 188.118 -5.55112e-17
557 1 158.842 21.3344 -5.55112e-17
558 1 35.9923 133.371 -5.55112e-17
559 2 48.5751 121.028 -5.55112e-17
560 2 127.749 56.5041 -5.55112e-17
561 2 13.4919 126.77 -5.55112e-17
562 2 133.223 41.2429 -5.55112e-17
563 1 158.049 125.849 -5.55112e-17
564 2 128.948 51.4741 -5.55112e-17
565 2 90.4677 93.244 -5.55112e-17
566 2 34.4207 35.874 -5.55112e-17
567 1 175.463 32.4667 -5.55112e-17
568 1 9.79946 113.932 -5.55112e-17
569 2 125.363 105.223 -5.55112e-17
570 2 44.9018 200.986 -5.55112e-17
571 2 165.456 169.58 -5.55112e-17
572 1 189.391 35.3373 -5.55112e-17
573 2 129.726 13.3634 -5.55112e-17
574 2 146.885 164.783 -5.55112e-17
575 1 148.425 126.102 -5.55112e-17
576 1 198.714 24.4413 -5.55112e-17
577 1 181.75 182.351 -5.55112e-17
578 1 95.0739 203.918 -5.55112e-17
579 2 136 40.1723 -5.55112e-17
580 1 97.9767 77.4451 -5.55112e-17
581 1 53.6252 135.494 -5.55112e-17
582 2 31.3103 73.9248 -5.55112e-17
583 2 208.562 103.623 -5.55112e-17
584 2 79.1253 215.639 -5.55112e-17
585 1 179.365 218.492 -5.55112e-17
586 1 159.386 47.5341 -5.55112e-17
587 1 138.578 33.0633 -5.55112e-17
588 2 57.6346 54.1315 -5.55112e-17
589 1 198.332 170.789 -5.55112e-17
590 2 65.1257 50.038 -5.55112e-17
591 2 4.14038 191.88 -5.55112e-17
592 1 95.4576 157.199 -5.55112e-17
593 1 91.0634 148.43 -5.55112e-17
594 1 111.432 154.406 -5.55112e-17
595 1 199.438 31.5172 -5.55112e-17
596 2 61.8102 37.5778 -5.55112e-17
597 2 100.121 38.2969 -5.55112e-17
598 2 27.2613 84.0607 -5.55112e-17
599 2 174.245 177.119 -5.55112e-17
600 2 129.359 175.937 -5.55112e-17
601 1 218.546 164.396 -5.55112e-17
602 1 204.652 71.1883 -5.55112e-17
603 2 54.0504 188.043 -5.55112e-17
604 1 201.767 85.7053 -5.55112e-17
605 2 124.508 29.6186 -5.55112e-17
606 2 131.244 107.014 -5.55112e-17
607 2 167.963 22.6656 -5.55112e-17
608 2 169.287 173.497 -5.55112e-17
609 1 128.351 117.638 -5.55112e-17
610 2 73.5381 217.481 -5.55112e-17
611 1 158.448 3.4151 -5.55112e-17
612 1 27.3895 94.7621 -5.55112e-17
613 2 96.3915 81.7697 -5.55112e-17
614 1 215.986 17.2882 -5.55112e-17
615 1 14.8738 113.595 -5.55112e-17
616 2 146.884 56.383 -5.55112e-17
617 1 5.55754 56.8413 -5.55112e-17
618 1 130.569 80.1747 -5.55112e-17
619 1 30.0905 180.97 -5.55112e-17
620 2 216.071 127.422 -5.55112e-17
621 2 13.9524 167.992 -5.55112e-17
622 2 44.3511 126.421 -5.55112e-17
623 2 159.674 208.297 -5.55112e-17
624 1 168.124 72.2562 -5.55112e-17
625 2 121.191 205.158 -5.55112e-17
626 1 69.4894 193.878 -5.55112e-17
627 2 113.364 23.2965 -5.55112e-17
628 1 134.79 129.392 -5.55112e-17
629 1 25.9987 211.354 -5.55112e-17
630 2 137.564 186.588 -5.55112e-17
631 2 218.246 213.855 -5.55112e-17
632 2 179.307 116.465 -5.55112e-17
633 2 120.855 171.849 -5.55112e-17
634 2 67.5725 96.8466 -5.55112e-17
635 2 30.6119 130.833 -5.55112e-17
636 1 214.762 19.1768 -5.55112e-17
637 1 134.205 176.784 -5.55112e-17
638 1 129.099 29.6037 -5.55112e-17
639 2 51.757 18.9531 -5.55112e-17
640 2 8.01224 193.674 -5.55112e-17
641 1 69.4903 118.754 -5.55112e-17
642 2 168.935 46.2004 -5.55112e-17
643 1 62.4434 91.3629 -5.55112e-17
644 2 156.726 118.196 -5.55112e-17
645 2 172.557 163.023 -5.55112e-17
646 1 29.4074 174.64 -5.55112e-17
647 2 93.9421 213.958 -5.55112e-17
648 2 117.857 82.087 -5.55112e-17
649 1 19.3571 199.909 -5.55112e-17
650 1 170.581 27.6772 -5.55112e-17
651 1 52.7539 104.795 -5.55112e-17
652 2 55.3898 111.21 -5.55112e-17
653 2 120.187 214.745 -5.55112e-17
654 1 180.243 53.3662 -5.55112e-17
655 1 67.1581 55.5429 -5.55112e-17
656 1 199.429 94.2625 -5.55112e-17
657 1 63.2893 51.9357 -5.55112e-17
658 2 38.7568 138.256 -5.55112e-17
659 2 132.793 54.4153 -5.55112e-17
660 1 192.356 114.644 -5.55112e-17
661 2 17.2906 144.891 -5.55112e-17
662 2 134.594 45.1163 -5.55112e-17
663 1 214.207 125.676 -5.55112e-17
664 1 40.8853 53.4338 -5.55112e-17
665 1 22.0241 24.3592 -5.55112e-17
666 1 147.684 157.78 -5.55112e-17
667 1 110.124 143.37 -5.55112e-17
668 1 147.226 153.57 -5.55112e-17
669 1 149.313 84.0421 -5.55112e-17
670 2 201.075 36.2037 -5.55112e-17
671 1 211.304 163.621 -5.55112e-17
672 1 145.144 90.9413 -5.55112e-17
673 2 197.65 40.2022 -5.55112e-17
674 2 79.5415 182.397 -5.55112e-17
675 2 166.54 214.597 -5.55112e-17
676 1 201.715 132.112 -5.55112e-17
677 2 202.305 121.721 -5.55112e-17
678 1 36.0777 43.3171 -5.55112e-17
679 1 74.2977 196.049 -5.55112e-17
680 2 93.5102 132.844 -5.55112e-17
681 1 60.4484 140.083 -5.55112e-17
682 1 190.313 110.686 -5.55112e-17
683 2 118.455 192.548 -5.55112e-17
684 1 42.1554 125.524 -5.55112e-17
685 1 127.885 100.825 -5.55112e-17
686 1 115.377 12.1416 -5.55112e-17
687 1 149.209 117.093 -5.55112e-17
688 1 25.9085 32.6687 -5.55112e-17
689 2 100.78 59.9839 -5.55112e-17
690 1 134.718 47.6935 -5.55112e-17
691 2 136.827 28.3143 -5.55112e-17
692 2 36.3139 211.386 -5.55112e-17
693 1 106.63 194.095 -5.55112e-17
694 2 179.821 18.843 -5.55112e-17
695 2 189.568 76.7668 -5.55112e-17
696 2 196.487 145.598 -5.55112e-17
697 1 157.888 190.083 -5.55112e-17
698 2 197.394 84.1383 -5.55112e-17
699 1 55.6024 141.89 -5.55112e-17
700 2 81.0383 142.101 -5.55112e-17
701 2 192.201 111.957 -5.55112e-17
702 1 36.9745 41.5072 -5.55112e-17
703 1 20.2477 119.254 -5.55112e-17
704 1 100.134 132.032 -5.55112e-17
705 1 2.03124 126.356 -5.55112e-17
706 1 151.466 170.49 -5.55112e-17
707 1 210.238 144.18 -5.55112e-17
708 2 10.2782 111.227 -5.55112e-17
709 1 54.6409 18.8518 -5.55112e-17
710 2 193.705 189.812 -5.55112e-17
711 2 94.5133 35.7793 -5.55112e-17
712 1 218.201 136.551 -5.55112e-17
713 1 4.97905 132.46 -5.55112e-17
714 2 209.559 106.848 -5.55112e-17
715 2 173.047 78.0166 -5.55112e-17
716 1 67.7438 150.168 -5.55112e-17
717 1 114.179 95.926 -5.55112e-17
718 2 17.1232 25.8534 -5.55112e-17
719 1 124.558 67.6561 -5.55112e-17
720 2 145.528 133.328 -5.55112e-17
721 2 177.917 148.633 -5.55112e-17
722 2 172.335 37.175 -5.55112e-17
723 2 88.6433 162.178 -5.55112e-17
724 2 148.978 155.549 -5.55112e-17
725 2 201.865 95.8007 -5.55112e-17
726 2 124.997 75.9851 -5.55112e-17
727 2 218.926 173.73 -5.55112e-17
728 1 179.473 39.7055 -5.55112e-17
729 2 112.493 142.83 -5.55112e-17
730 2 13.2531 57.6321 -5.55112e-17
731 1 136.129 104.176 -5.55112e-17
732 2 50.6547 135.417 -5.55112e-17
733 2 13.8983 171.121 -5.55112e-17
734 2 135.464 80.1432 -5.55112e-17
735 2 25.0333 89.9116 -5.55112e-17
736 1 56.3044 175.261 -5.55112e-17
737 2 140.035 63.1723 -5.55112e-17
738 2 167.726 9.92034 -5.55112e-17
739 2 19.7852 27.1592 -5.55112e-17
740 2 67.4264 134.194 -5.55112e-17
741 2 18.268 71.1152 -5.55112e-17
742 1 61.4196 194.765 -5.55112e-17
743 2 90.6941 212.731 -5.55112e-17
744 1 78.8665 213.024 -5.55112e-17
745 2 7.64751 132.267 -5.55112e-17
746 1 38.9392 97.0143 -5.55112e-17
747 1 178.701 119.387 -5.55112e-17
748 2 102.243 189.806 -5.55112e-17
749 1 160.775 96.369 -5.55112e-17
750 1 198.966 86.1094 -5.55112e-17
751 1 142.283 109.965 -5.55112e-17
752 2 218.679 169.96 -5.55112e-17
753 1 131.893 28.699 -5.55112e-17
754 2 106.271 132.17 -5.55112e-17
755 1 134.195 67.0596 -5.55112e-17
756 2 187.822 94.4095 -5.55112e-17
757 1 23.6302 148.455 -5.55112e-17
758 2 10.0016 214.655 -5.55112e-17
759 1 101.425 80.3001 -5.55112e-17
760 1 44.0342 169.827 -5.55112e-17
761 2 70.0487 89.6801 -5.55112e-17
762 1 86.832 49.9571 -5.55112e-17
763 2 193.407 198.012 -5.55112e-17
764 2 215.86 51.5182 -5.55112e-17
765 1 44.2636 177.126 -5.55112e-17
766 2 53.3978 191.398 -5.55112e-17
767 2 159.886 188.399 -5.55112e-17
768 2 106.512 95.318 -5.55112e-17
769 2 197.804 182.082 -5.55112e-17
770 1 114.69 83.1625 -5.55112e-17
771 1 83.6037 25.3007 -5.55112e-17
772 1 63.2255 186.731 -5.55112e-17
773 2 91.42 88.2975 -5.55112e-17
774 1 53.9767 29.7917 -5.55112e-17
775 1 44.2259 121.295 -5.55112e-17
776 2 152.916 25.3372 -5.55112e-17
777 2 100.425 137.153 -5.55112e-17
778 1 118.626 11.5201 -5.55112e-17
779 1 93.2296 111.784 -5.55112e-17
780 2 164.113 67.3243 -5.55112e-17
781 1 121.25 146.069 -5.55112e-17
782 2 76.4813 217.611 -5.55112e-17
783 1 182.534 95.9588 -5.55112e-17
784 2 189.277 170.257 -5.55112e-17
785 1 205.2 171.543 -5.55112e-17
786 1 3.81817 207.233 -5.55112e-17
787 2 31.6069 187.918 -5.55112e-17
788 2 187.028 97.5268 -5.55112e-17
789 2 79.771 146.621 -5.55112e-17
790 2 173.47 61.0986 -5.55112e-17
791 2 144.858 61.3006 -5.55112e-17
792 1 111.818 209.691 -5.55112e-17
793 1 8.10637 143.022 -5.55112e-17
794 2 113.054 103.924 -5.55112e-17
795 2 140.135 77.0433 -5.55112e-17
796 1 119.934 59.2046 -5.55112e-17
797 1 118.598 27.5828 -5.55112e-17
798 1 213.606 113.564 -5.55112e-17
799 2 117.766 105.789 -5.55112e-17
800 1 91.2398 61.6661 -5.55112e-17
801 2 19.4056 132.949 -5.55112e-17
802 1 115.083 75.7823 -5.55112e-17
803 1 204.445 109.067 -5.55112e-17
804 1 87.5228 183.153 -5.55112e-17
805 2 51.9103 25.5116 -5.55112e-17
806 2 200.354 83.713 -5.55112e-17
807 2 11.7059 196.934 -5.55112e-17
808 2 126.29 84.7796 -5.55112e-17
809 1 156.628 171.369 -5.55112e-17
810 2 203.679 56.489 -5.55112e-17
811 2 39.4962 83.8933 -5.55112e-17
812 1 200.669 218.452 -5.55112e-17
813 1 11.4393 72.9405 -5.55112e-17
814 1 162.916 110.907 -5.55112e-17
815 1 174.791 202.74 -5.55112e-17
816 1 72.224 63.2679 -5.55112e-17
817 2 15.3777 173.637 -5.55112e-17
818 2 211.705 109.276 -5.55112e-17
819 2 94.1295 27.3963 -5.55112e-17
820 1 116.381 56.8751 -5.55112e-17
821 1 205.22 150.284 -5.55112e-17
822 2 151.18 145.785 -5.55112e-17
823 1 102.752 127.913 -5.55112e-17
824 1 78.7194 79.58 -5.55112e-17
825 1 17.747 119.931 -5.55112e-17
826 2 196.4 202.641 -5.55112e-17
827 2 194.666 104.049 -5.55112e-17
828 1 91.6028 126.571 -5.55112e-17
829 2 204.776 47.5547 -5.55112e-17
830 1 47.2639 69.4743 -5.55112e-17
831 2 85.993 95.321 -5.55112e-17
832 2 174.563 28.5473 -5.55112e-17
833 2 95.3473 6.42633 -5.55112e-17
834 1 181.353 99.5096 -5.55112e-17
835 1 33.4645 201.747 -5.55112e-17
836 1 96.1182 87.1131 -5.55112e-17
837 2 17.6027 108.958 -5.55112e-17
838 2 29.3659 96.4225 -5.55112e-17
839 1 129.621 127.534 -5.55112e-17
840 2 117.86 168.598 -5.55112e-17
841 2 114.804 197.866 -5.55112e-17
842 1 102.156 17.9147 -5.55112e-17
843 1 161.329 98.8517 -5.55112e-17
844 2 194.685 125.349 -5.55112e-17
845 1 217.151 157.678 -5.55112e-17
846 2 27.5396 138.98 -5.55112e-17
847 1 163.856 171.772 -5.55112e-17
848 2 73.0492 28.0849 -5.55112e-17
849 1 57.3471 216.938 -5.55112e-17
850 2 65.5014 80.5291 -5.55112e-17
851 2 108.273 160.701 -5.55112e-17
852 1 179.374 212.285 -5.55112e-17
853 1 136.934 35.2263 -5.55112e-17
854 2 101.946 173.739 -5.55112e-17
855 2 152.724 172.584 -5.55112e-17
856 1 107.115 172.879 -5.55112e-17
857 2 130.357 21.5703 -5.55112e-17