ITEM: TIMESTEP
0
ITEM: NUMBER OF ATOMS
7200
ITEM: BOX BOUNDS xy xz yz pp pp pp
0.0000000000000000e+00 2.1900000000000000e+02 0.0000000000000000e+00
0.0000000000000000e+00 2.1900000000000000e+02 0.0000000000000000e+00
-3.6499999999999999e-01 3.6499999999999999e-01 0.0000000000000000e+00
ITEM: ATOMS id type x y z
1 1 45.0085 91.0719 -5.55112e-17
2 2 113.835 161.287 -5.55112e-17
3 2 65.5911 68.8211 -5.55112e-17
4 1 51.2732 49.722 -5.55112e-17
5 1 80.9474 70.7667 -5.55112e-17
6 1 176.887 212.313 -5.55112e-17
7 2 19.3479 0.894554 -5.55112e-17
8 2 117.367 145.555 -5.55112e-17
9 1 68.6906 30.5503 -5.55112e-17
10 2 182.777 108.799 -5.55112e-17
11 2 199.839 34.515 -5.55112e-17
12 1 212.618 133.152 -5.55112e-17
13 2 37.4696 191.346 -5.55112e-17
14 1 133.544 151.488 -5.55112e-17
15 2 178.822 156.573 -5.55112e-17
16 2 185.631 94.3418 -5.55112e-17
17 1 165.942 102.27 -5.55112e-17
18 2 159.867 180.926 -5.55112e-17
19 1 20.749 188.079 -5.55112e-17
20 1 153.917 161.761 -5.55112e-17
21 1 122.43 119.891 -5.55112e-17
22 2 99.8348 27.538 -5.55112e-17
23 2 50.5613 133.004 -5.55112e-17
24 2 218.262 54.8515 -5.55112e-17
25 2 135.27 182.569 -5.55112e-17
26 2 26.9277 120.79 -5.55112e-17
27 1 210.071 55.2118 -5.55112e-17
28 2 163.587 31.4282 -5.55112e-17
29 2 0.0878847 170.497 -5.55112e-17
30 2 50.4319 170.144 -5.55112e-17
31 2 62.0634 124.703 -5.55112e-17
32 1 112.511 36.6826 -5.55112e-17
33 2 117.676 176.49 -5.55112e-17
34 2 193.885 46.1107 -5.55112e-17
35 2 11.6799 214.034 -5.55112e-17
36 1 176.332 1.36091 -5.55112e-17
37 1 169.031 56.8215 -5.55112e-17
38 2 157.607 194.891 -5.55112e-17
39 1 16.5169 110.59 -5.55112e-17
40 2 75.2586 65.4953 -5.55112e-17
41 1 113.516 2.83797 -5.55112e-17
42 1 191.938 129.554 -5.55112e-17
43 1 29.68 92.4223 -5.55112e-17
44 1 183.659 188.197 -5.55112e-17
45 2 147.374 211.747 -5.55112e-17
46 1 12.1937 101.75 -5.55112e-17
47 2 202.845 137.144 -5.55112e-17
48 2 67.0078 64.0173 -5.55112e-17
49 1 140.648 102.502 -5.55112e-17
50 2 128.057 78.0573 -5.55112e-17
51 1 85.4773 206 -5.55112e-17
52 1 152.399 10.2313 -5.55112e-17
53 2 58.3971 149.465 -5.55112e-17
54 1 171.556 2.6856 -5.55112e-17
55 2 115.031 172.021 -5.55112e-17
56 1 98.1819 91.2589 -5.55112e-17
57 2 38.3343 64.6864 -5.55112e-17
58 1 70.3222 67.2069 -5.55112e-17
59 1 52.6219 195.889 -5.55112e-17
60 2 16.2842 182.485 -5.55112e-17
61 1 142.795 39.892 -5.55112e-17
62 1 202.041 107.268 -5.55112e-17
63 2 157.604 24.6027 -5.55112e-17
64 1 64.7315 132.459 -5.55112e-17
65 2 37.1062 69.3403 -5.55112e-17
66 2 85.2057 188.965 -5.55112e-17
67 2 134.888 143.396 -5.55112e-17
68 1 202.394 45.4876 -5.55112e-17
69 2 96.9604 202.899 -5.55112e-17
70 1 85.1487 98.5197 -5.55112e-17
71 1 20.2341 80.3643 -5.55112e-17
72 2 5.87265 67.7388 -5.55112e-17
73 2 104.459 12.3994 -5.55112e-17
74 2 99.2357 53.564 -5.55112e-17
75 1 42.9759 179.286 -5.55112e-17
76 2 66.11 60.9217 -5.55112e-17
77 2 97.6789 123.994 -5.55112e-17
78 1 50.5013 11.6162 -5.55112e-17
79 2 8.52508 199.099 -5.55112e-17
80 1 86.7357 78.3777 -5.55112e-17
81 1 47.2857 89.7068 -5.55112e-17
82 1 85.1314 58.2205 -5.55112e-17
83 1 154.204 35.2634 -5.55112e-17
84 2 215.466 218.301 -5.55112e-17
85 2 140.417 199.351 -5.55112e-17
86 2 176.159 90.8587 -5.55112e-17
87 2 153.186 191.927 -5.55112e-17
88 1 139.136 118.884 -5.55112e-17
89 2 120.459 154.926 -5.55112e-17
90 2 156.093 99.1637 -5.55112e-17
91 2 85.6648 80.6466 -5.55112e-17
92 1 77.6809 114.169 -5.55112e-17
93 2 107.195 90.0424 -5.55112e-17
94 2 76.7064 4.7026 -5.55112e-17
95 1 121.114 167.079 -5.55112e-17
96 2 36.5401 49.4779 -5.55112e-17
97 2 92.8771 153.34 -5.55112e-17
98 2 85.2927 83.9827 -5.55112e-17
99 1 156.169 93.5035 -5.55112e-17
100 2 164.389 47.3331 -5.55112e-17
101 1 168.335 174.579 -5.55112e-17
102 1 109.952 0.786549 -5.55112e-17
103 2 84.6723 125.866 -5.55112e-17
104 2 33.2607 110.599 -5.55112e-17
105 1 196.031 120.914 -5.55112e-17
106 1 162.482 15.0609 -5.55112e-17
107 1 120.54 134.041 -5.55112e-17
108 1 141.157 193.791 -5.55112e-17
109 2 136.893 46.0717 -5.55112e-17
110 2 17.0586 129.126 -5.55112e-17
111 1 201.564 47.7567 -5.55112e-17
112 2 31.3063 99.2949 -5.55112e-17
113 1 47.7458 69.2391 -5.55112e-17
114 1 29.7834 194.217 -5.55112e-17
115 2 206.216 203.712 -5.55112e-17
116 2 183.04 51.6611 -5.55112e-17
117 1 154.685 61.1842 -5.55112e-17
118 1 45.8253 130.904 -5.55112e-17
119 2 76.0037 131.55 -5.55112e-17
120 2 134.002 60.5093 -5.55112e-17
121 1 151.222 7.59237 -5.55112e-17
122 2 176.731 15.8552 -5.55112e-17
123 2 197.169 72.2475 -5.55112e-17
124 1 212.669 169.021 -5.55112e-17
125 1 57.1543 103.58 -5.55112e-17
126 2 104.524 88.5929 -5.55112e-17
127 2 202.495 148.798 -5.55112e-17
128 1 55.7546 117.706 -5.55112e-17
129 1 135.393 127.208 -5.55112e-17
130 2 87.8845 31.1318 -5.55112e-17
131 1 35.0838 53.7994 -5.55112e-17
132 1 176.508 178.474 -5.55112e-17
133 1 27.3629 93.0442 -5.55112e-17
134 1 51.7098 210.221 -5.55112e-17
135 2 37.1283 153.591 -5.55112e-17
136 1 14.2502 44.8805 -5.55112e-17
137 1 64.9829 191.976 -5.55112e-17
138 2 171.424 78.8503 -5.55112e-17
139 1 0.885351 32.617 -5.55112e-17
140 1 21.2258 72.7637 -5.55112e-17
141 1 119.081 15.6841 -5.55112e-17
142 1 176.468 50.2937 -5.55112e-17
143 1 208.921 89.7317 -5.55112e-17
144 1 12.611 32.9764 -5.55112e-17
145 2 15.8569 22.7543 -5.55112e-17
146 1 140.926 217.789 -5.55112e-17
147 2 114.362 43.954 -5.55112e-17
148 1 127.822 155.363 -5.55112e-17
149 1 60.3266 62.9734 -5.55112e-17
150 2 98.0413 118.129 -5.55112e-17
151 1 144.796 77.1425 -5.55112e-17
152 1 32.05 30.392 -5.55112e-17
153 2 114.071 20.9997 -5.55112e-17
154 1 78.1804 157.713 -5.55112e-17
155 2 140.7 108.059 -5.55112e-17
156 2 107.593 39.0562 -5.55112e-17
157 2 188.982 215.18 -5.55112e-17
158 2 98.7556 207.113 -5.55112e-17
159 2 62.7032 61.4734 -5.55112e-17
160 2 38.8467 61.7633 -5.55112e-17
161 2 171.822 57.7179 -5.55112e-17
162 1 187.827 84.9314 -5.55112e-17
163 1 171.966 146.402 -5.55112e-17
164 2 174.495 2.94941 -5.55112e-17
165 1 179.823 190.574 -5.55112e-17
166 2 85.3542 14.0873 -5.55112e-17
167 1 56.8269 209.676 -5.55112e-17
168 1 157.061 57.1916 -5.55112e-17
169 2 185.107 63.9611 -5.55112e-17
170 1 82.9596 157.641 -5.55112e-17
171 1 204.526 107.747 -5.55112e-17
172 1 126.596 7.07935 -5.55112e-17
173 1 139.643 94.7756 -5.55112e-17
174 2 48.3751 42.8435 -5.55112e-17
175 2 30.5585 14.2545 -5.55112e-17
176 1 133.95 4.02355 -5.55112e-17
177 2 122.26 203.641 -5.55112e-17
178 1 188.571 149.445 -5.55112e-17
179 2 64.785 39.4571 -5.55112e-17
180 1 132.418 211.525 -5.55112e-17
181 1 45.7518 42.6815 -5.55112e-17
182 1 84.3332 77.7644 -5.55112e-17
183 1 150.637 177.001 -5.55112e-17
184 2 148.53 106.273 -5.55112e-17
185 2 178.508 149.445 -5.55112e-17
186 2 8.03876 206.628 -5.55112e-17
187 2 16.6445 185.68 -5.55112e-17
188 2 8.00518 106.785 -5.55112e-17
189 1 34.1593 163.996 -5.55112e-17
190 1 167.255 117.991 -5.55112e-17
191 2 78.5197 146.079 -5.55112e-17
192 2 141.425 177.357 -5.55112e-17
193 1 151.193 122.907 -5.55112e-17
194 1 14.7226 48.0954 -5.55112e-17
195 2 5.16451 177.227 -5.55112e-17
196 1 215.424 83.1972 -5.55112e-17
197 2 15.0457 112.924 -5.55112e-17
198 2 118.409 38.1918 -5.55112e-17
199 2 176.593 204.508 -5.55112e-17
200 2 5.75509 129.153 -5.55112e-17
201 2 36.0898 72.424 -5.55112e-17
202 1 0.135084 59.7694 -5.55112e-17
203 1 93.2209 175.969 -5.55112e-17
204 2 28.9331 122.59 -5.55112e-17
205 2 127.807 179.922 -5.55112e-17
206 2 102.789 198.885 -5.55112e-17
207 1 169.939 37.0294 -5.55112e-17
208 2 33.7305 61.7756 -5.55112e-17
209 2 151.442 35.6678 -5.55112e-17
210 1 72.4425 99.0794 -5.55112e-17
211 1 172.565 198.743 -5.55112e-17
212 1 98.5607 154.919 -5.55112e-17
213 1 167.097 148.681 -5.55112e-17
214 2 43.7879 163.465 -5.55112e-17
215 1 213.793 128.38 -5.55112e-17
216 1 206.116 196.227 -5.55112e-17
217 1 95.2969 97.5743 -5.55112e-17
218 2 31.0719 127.834 -5.55112e-17
219 2 102.064 31.7975 -5.55112e-17
220 1 209.896 136.682 -5.55112e-17
221 2 30.4053 23.5435 -5.55112e-17
222 1 115.161 4.31864 -5.55112e-17
223 1 13.9849 66.9567 -5.55112e-17
224 2 187.862 151.995 -5.55112e-17
225 2 26.3246 86.1728 -5.55112e-17
226 1 96.8698 38.8555 -5.55112e-17
227 2 172.719 18.6543 -5.55112e-17
228 2 42.0726 90.171 -5.55112e-17
229 1 191.74 205.843 -5.55112e-17
230 1 165.108 124.905 -5.55112e-17
231 2 25.5866 127.627 -5.55112e-17
232 1 59.059 184.887 -5.55112e-17
233 2 149.45 136.38 -5.55112e-17
234 1 35.8604 180.548 -5.55112e-17
235 1 115.489 209.943 -5.55112e-17
236 2 1.07948 24.8 -5.55112e-17
237 2 47.8232 148.818 -5.55112e-17
238 2 49.7784 2.70676 -5.55112e-17
239 1 158.769 16.7846 -5.55112e-17
240 1 196.109 1.12751 -5.55112e-17
241 2 80.5421 16.4738 -5.55112e-17
242 1 158.172 152.788 -5.55112e-17
243 2 42.4732 145.886 -5.55112e-17
244 2 190.124 195.054 -5.55112e-17
245 1 172.966 135.678 -5.55112e-17
246 2 28.3202 25.3353 -5.55112e-17
247 2 114.884 185.141 -5.55112e-17
248 1 119.905 44.1621 -5.55112e-17
249 1 102.584 188.818 -5.55112e-17
250 1 124.538 149.378 -5.55112e-17
251 2 37.5869 46.5392 -5.55112e-17
252 1 201.006 157.901 -5.55112e-17
253 2 159.056 98.8227 -5.55112e-17
254 2 135.361 217.828 -5.55112e-17
255 2 72.9975 139.155 -5.55112e-17
256 1 0.0585915 2.59855 -5.55112e-17
257 2 53.0143 60.3956 -5.55112e-17
258 1 94.6968 14.9131 -5.55112e-17
259 2 142.454 133.37 -5.55112e-17
260 1 65.7315 8.6194 -5.55112e-17
261 2 23.2307 189.828 -5.55112e-17
262 2 59.5145 217.007 -5.55112e-17
263 2 18.6799 101.88 -5.55112e-17
264 1 113.567 213.789 -5.55112e-17
265 1 68.0094 12.5772 -5.55112e-17
266 1 128.015 22.2311 -5.55112e-17
267 2 162.58 8.44372 -5.55112e-17
268 1 208.423 40.4389 -5.55112e-17
269 2 159.121 139.324 -5.55112e-17
270 2 214.799 111.673 -5.55112e-17
271 2 199.806 170.339 -5.55112e-17
272 1 94.8103 177.476 -5.55112e-17
273 1 45.2562 4.52021 -5.55112e-17
274 1 70.7205 61.7688 -5.55112e-17
275 1 196.562 69.668 -5.55112e-17
276 1 150.015 167.571 -5.55112e-17
277 1 213.464 89.7514 -5.55112e-17
278 2 81.2568 180.63 -5.55112e-17
279 2 77.4487 41.1827 -5.55112e-17
280 1 74.4978 41.4862 -5.55112e-17
281 2 195.636 177.613 -5.55112e-17
282 2 13.2295 218.512 -5.55112e-17
283 2 104.169 107.462 -5.55112e-17
284 1 105.999 55.0136 -5.55112e-17
285 1 180.584 42.4335 -5.55112e-17
286 2 186.311 174.187 -5.55112e-17
287 2 107.187 57.3562 -5.55112e-17
288 1 77.6783 100.192 -5.55112e-17
289 2 176.244 130.302 -5.55112e-17
290 1 45.3798 179.76 -5.55112e-17
291 2 7.61477 209.665 -5.55112e-17
292 1 62.1023 163.218 -5.55112e-17
293 1 52.1864 165.508 -5.55112e-17
294 1 70.3567 104.375 -5.55112e-17
295 2 29.1601 191.338 -5.55112e-17
296 1 78.5626 85.8592 -5.55112e-17
297 1 27.3485 216.956 -5.55112e-17
298 2 202.09 94.4799 -5.55112e-17
299 1 201.95 102.679 -5.55112e-17
300 2 71.2964 31.5597 -5.55112e-17
301 2 30.6392 62.3455 -5.55112e-17
302 2 12.4238 118.323 -5.55112e-17
303 1 171.427 30.2599 -5.55112e-17
304 1 59.9501 108.898 -5.55112e-17
305 1 26.9848 6.03377 -5.55112e-17
306 2 14.4627 179.578 -5.55112e-17
307 2 185.187 137.552 -5.55112e-17
308 2 31.0284 175.004 -5.55112e-17
309 1 169.018 206.761 -5.55112e-17
310 1 119.811 6.83495 -5.55112e-17
311 1 45.3954 201.583 -5.55112e-17
312 2 106.705 163.292 -5.55112e-17
313 2 217.751 34.7399 -5.55112e-17
314 1 147.068 47.7728 -5.55112e-17
315 2 19.501 190.358 -5.55112e-17
316 1 207.027 13.4381 -5.55112e-17
317 1 17.6 204.074 -5.55112e-17
318 1 147.956 29.669 -5.55112e-17
319 2 183.926 46.8518 -5.55112e-17
320 1 32.9787 161.623 -5.55112e-17
321 1 161.529 54.3779 -5.55112e-17
322 1 203.264 134.398 -5.55112e-17
323 2 80.9418 54.2802 -5.55112e-17
324 2 211.526 80.762 -5.55112e-17
325 2 22.5371 12.1781 -5.55112e-17
326 1 62.562 181.598 -5.55112e-17
327 1 81.1731 56.6791 -5.55112e-17
328 2 162.104 188.191 -5.55112e-17
329 2 65.9909 0.054099 -5.55112e-17
330 2 85.9216 173.655 -5.55112e-17
331 2 19.7145 211.258 -5.55112e-17
332 2 156.334 15.4991 -5.55112e-17
333 2 170.018 196.725 -5.55112e-17
334 2 141.262 163.218 -5.55112e-17
335 1 49.4966 203.018 -5.55112e-17
336 2 3.28281 17.9949 -5.55112e-17
337 2 216.462 176.377 -5.55112e-17
338 1 115.475 62.8532 -5.55112e-17
339 2 93.8761 166.207 -5.55112e-17
340 2 179.938 144.572 -5.55112e-17
341 2 98.9886 167.291 -5.55112e-17
342 2 93.6399 180.424 -5.55112e-17
343 2 211.744 94.5772 -5.55112e-17
344 1 23.2103 9.65985 -5.55112e-17
345 2 78.4001 61.4049 -5.55112e-17
346 2 12.6123 177.335 -5.55112e-17
347 1 89.0045 18.639 -5.55112e-17
348 1 79.0165 175.421 -5.55112e-17
349 2 189.989 5.98396 -5.55112e-17
350 2 63.922 77.2313 -5.55112e-17
351 1 183.421 76.2889 -5.55112e-17
352 1 93.7069 140.072 -5.55112e-17
353 2 141.486 16.9648 -5.55112e-17
354 2 1.15796 173.522 -5.55112e-17
355 1 192.183 197.264 -5.55112e-17
356 2 31.5807 121.393 -5.55112e-17
357 1 46.1243 181.755 -5.55112e-17
358 1 67.6028 7.48647 -5.55112e-17
359 1 193.623 139.688 -5.55112e-17
360 1 90.4704 125.947 -5.55112e-17
361 2 183.272 151.37 -5.55112e-17
362 2 166.541 75.1042 -5.55112e-17
363 1 155.017 110.247 -5.55112e-17
364 2 42.5241 126.909 -5.55112e-17
365 1 212.479 92.0783 -5.55112e-17
366 1 217.357 81.344 -5.55112e-17
367 1 131.645 30.5814 -5.55112e-17
368 1 65.0077 65.9578 -5.55112e-17
369 2 166.561 66.8073 -5.55112e-17
370 1 149.642 72.5041 -5.55112e-17
371 2 92.6489 132.582 -5.55112e-17
372 1 20.251 89.3076 -5.55112e-17
373 2 78.2238 216.411 -5.55112e-17
374 2 177.047 29.3781 -5.55112e-17
375 1 44.8664 58.9256 -5.55112e-17
376 1 90.29 16.8587 -5.55112e-17
377 2 90.6578 176.36 -5.55112e-17
378 2 189.479 99.8613 -5.55112e-17
379 2 199.828 172.893 -5.55112e-17
380 1 43.492 30.062 -5.55112e-17
381 1 17.4531 160.848 -5.55112e-17
382 1 21.049 146.844 -5.55112e-17
383 1 159.946 4.41995 -5.55112e-17
384 2 38.0184 112.195 -5.55112e-17
385 1 194.676 141.894 -5.55112e-17
386 2 77.3908 95.8635 -5.55112e-17
387 1 73.7205 155.566 -5.55112e-17
388 1 38.8208 208.541 -5.55112e-17
389 2 44.4704 215.716 -5.55112e-17
390 1 30.2867 138.398 -5.55112e-17
391 1 208.455 213.575 -5.55112e-17
392 2 164.048 178.279 -5.55112e-17
393 2 48.2015 84.4727 -5.55112e-17
394 1 138.157 200.566 -5.55112e-17
395 1 140.746 32.0865 -5.55112e-17
396 2 200.351 26.0422 -5.55112e-17
397 1 180.374 101.195 -5.55112e-17
398 2 179.146 178.933 -5.55112e-17
399 2 210.524 161.839 -5.55112e-17
400 2 15.0124 213.847 -5.55112e-17
401 2 16.7541 174.225 -5.55112e-17
402 1 211.983 159.685 -5.55112e-17
403 1 11.3796 205.968 -5.55112e-17
404 2 62.2966 165.824 -5.55112e-17
405 1 150.051 42.7744 -5.55112e-17
406 2 8.11683 62.3389 -5.55112e-17
407 1 152.429 215.043 -5.55112e-17
408 1 169.316 216.424 -5.55112e-17
409 2 102.612 120.101 -5.55112e-17
410 2 132.255 142.201 -5.55112e-17
411 1 151.72 1.00068 -5.55112e-17
412 1 121.965 164.824 -5.55112e-17
413 1 123.539 201.311 -5.55112e-17
414 2 80.4501 214.339 -5.55112e-17
415 1 101.613 29.5349 -5.55112e-17
416 1 171.772 35.268 -5.55112e-17
417 2 90.046 187.53 -5.55112e-17
418 2 94.3962 102.492 -5.55112e-17
419 2 50.8204 163.489 -5.55112e-17
420 2 9.19352 85.2452 -5.55112e-17
421 1 88.6949 28.4184 -5.55112e-17
422 1 72.948 65.7062 -5.55112e-17
423 2 24.259 193.059 -5.55112e-17
424 2 208.589 196.88 -5.55112e-17
425 2 151.772 44.8238 -5.55112e-17
426 1 17.4574 84.4861 -5.55112e-17
427 2 59.468 34.7352 -5.55112e-17
428 1 82.457 45.2795 -5.55112e-17
429 2 172.265 210.979 -5.55112e-17
430 2 23.4706 84.9567 -5.55112e-17
431 1 26.2308 72.2103 -5.55112e-17
432 2 24.8477 162.448 -5.55112e-17
433 1 15.8105 59.5735 -5.55112e-17
434 1 153.421 169.958 -5.55112e-17
435 1 77.5297 63.7703 -5.55112e-17
436 2 171.428 115.92 -5.55112e-17
437 2 207.217 137.666 -5.55112e-17
438 2 54.0893 37.5465 -5.55112e-17
439 2 62.5737 190.83 -5.55112e-17
440 2 140.208 104.911 -5.55112e-17
441 1 26.794 157.022 -5.55112e-17
442 1 180.204 79.03 -5.55112e-17
443 2 70.9712 3.26435 -5.55112e-17
444 1 116.314 19.5253 -5.55112e-17
445 1 139.752 159.043 -5.55112e-17
446 2 11.2528 130.576 -5.55112e-17
447 2 9.33984 51.3905 -5.55112e-17
448 2 136.939 114.976 -5.55112e-17
449 1 118.221 100.81 -5.55112e-17
450 1 133.999 73.4214 -5.55112e-17
451 1 171.808 96.1876 -5.55112e-17
452 2 170.966 70.602 -5.55112e-17
453 1 0.777032 103.838 -5.55112e-17
454 1 28.2355 71.7243 -5.55112e-17
455 2 69.8714 190.318 -5.55112e-17
456 1 79.0459 125.163 -5.55112e-17
457 2 106.722 192.668 -5.55112e-17
458 2 84.431 180.203 -5.55112e-17
459 2 50.5269 76.728 -5.55112e-17
460 1 192.328 33.3179 -5.55112e-17
461 1 41.3503 51.9812 -5.55112e-17
462 1 193.544 132.71 -5.55112e-17
463 2 177.107 36.4638 -5.55112e-17
464 2 129.981 36.237 -5.55112e-17
465 1 22.68 113.707 -5.55112e-17
466 2 85.3397 63.7728 -5.55112e-17
467 2 35.1379 41.2559 -5.55112e-17
468 2 161.455 24.4609 -5.55112e-17
469 2 0.741949 136.292 -5.55112e-17
470 2 118.701 107.306 -5.55112e-17
471 2 208.34 119.229 -5.55112e-17
472 2 90.8567 46.8514 -5.55112e-17
473 2 117.897 140.803 -5.55112e-17
474 2 176.897 143.786 -5.55112e-17
475 1 142.647 210.916 -5.55112e-17
476 2 11.5846 180.234 -5.55112e-17
477 1 115.366 11.6939 -5.55112e-17
478 1 132.519 144.845 -5.55112e-17
479 2 76.009 150.898 -5.55112e-17
480 1 129.587 26.3948 -5.55112e-17
481 1 39.9526 206.272 -5.55112e-17
482 2 152.132 105.76 -5.55112e-17
483 1 88.8816 182.707 -5.55112e-17
484 1 163.903 59.1984 -5.55112e-17
485 2 8.66349 45.7017 -5.55112e-17
486 1 33.3093 156.974 -5.55112e-17
487 1 205.429 70.2093 -5.55112e-17
488 1 21.9518 159.066 -5.55112e-17
489 1 14.3798 147.674 -5.55112e-17
490 1 180.181 109.152 -5.55112e-17
491 1 11.6786 1.39543 -5.55112e-17
492 2 94.0999 193.262 -5.55112e-17
493 1 120.471 87.4321 -5.55112e-17
494 2 61.5238 153.717 -5.55112e-17
495 1 103.977 167.337 -5.55112e-17
496 1 65.125 115.341 -5.55112e-17
497 1 125.253 106.895 -5.55112e-17
498 2 66.7759 47.1964 -5.55112e-17
499 2 211.191 157.313 -5.55112e-17
500 2 139.384 167.89 -5.55112e-17
501 2 12.0171 46.6869 -5.55112e-17
502 2 192.997 175.845 -5.55112e-17
503 2 19.9794 61.2434 -5.55112e-17
504 2 10.2675 194.127 -5.55112e-17
505 2 71.3685 160.804 -5.55112e-17
506 1 37.1378 29.0985 -5.55112e-17
507 2 202.248 97.9243 -5.55112e-17
508 1 122.667 135.487 -5.55112e-17
509 1 203.68 131.6 -5.55112e-17
510 1 148.525 216.727 -5.55112e-17
511 2 7.1807 186.33 -5.55112e-17
512 1 98.2432 98.1951 -5.55112e-17
513 2 145.264 49.7838 -5.55112e-17
514 2 100.211 56.9416 -5.55112e-17
515 1 149.518 158.719 -5.55112e-17
516 2 45.6526 77.3232 -5.55112e-17
517 1 8.17563 78.3121 -5.55112e-17
518 2 215.155 55.5438 -5.55112e-17
519 1 152.099 196.669 -5.55112e-17
520 2 174.442 74.6416 -5.55112e-17
521 2 120.721 194.128 -5.55112e-17
522 1 143.311 72.2989 -5.55112e-17
523 1 112.944 129.302 -5.55112e-17
524 2 217.91 196.988 -5.55112e-17
525 2 96.6172 165.199 -5.55112e-17
526 2 68.2057 26.3684 -5.55112e-17
527 1 115.516 218.154 -5.55112e-17
528 1 109.238 95.2682 -5.55112e-17
529 2 56.216 30.9022 -5.55112e-17
530 2 100.282 132.156 -5.55112e-17
531 2 83.7116 41.0923 -5.55112e-17
532 1 190.968 77.593 -5.55112e-17
533 2 4.10725 124.197 -5.55112e-17
534 1 24.5094 30.3126 -5.55112e-17
535 1 17.7046 24.5165 -5.55112e-17
536 2 173.439 54.0803 -5.55112e-17
537 1 206.528 33.6053 -5.55112e-17
538 1 101.757 3.2463 -5.55112e-17
539 2 1.97099 55.0649 -5.55112e-17
540 1 23.7162 172.599 -5.55112e-17
541 1 40.1921 218.761 -5.55112e-17
542 1 201.859 121.897 -5.55112e-17
543 2 75.8937 86.6255 -5.55112e-17
544 1 12.3832 80.3596 -5.55112e-17
545 1 209.557 116.708 -5.55112e-17
546 2 155.051 180.331 -5.55112e-17
547 1 66.2501 58.3993 -5.55112e-17
548 1 71.1208 34.2517 -5.55112e-17
549 2 188.686 57.3733 -5.55112e-17
550 2 111.147 214.571 -5.55112e-17
551 2 210.202 211.575 -5.55112e-17
552 1 20.3663 154.331 -5.55112e-17
553 2 162.107 85.1346 -5.55112e-17
554 2 41.1217 204.001 -5.55112e-17
555 2 134.874 158.69 -5.55112e-17
556 1 182.537 170.699 -5.55112e-17
557 1 150.245 133.792 -5.55112e-17
558 1 106.701 125.558 -5.55112e-17
559 2 61.5249 58.1577 -5.55112e-17
560 2 129.547 41.5357 -5.55112e-17
561 2 100.614 122.698 -5.55112e-17
562 2 212.491 43.3753 -5.55112e-17
563 1 211.189 103.901 -5.55112e-17
564 2 171.486 184.707 -5.55112e-17
565 2 91.9491 108.922 -5.55112e-17
566 2 50.8299 101.38 -5.55112e-17
567 1 110.295 182.456 -5.55112e-17
568 1 149.82 146.365 -5.55112e-17
569 2 216.334 66.3709 -5.55112e-17
570 2 137.218 23.1923 -5.55112e-17
571 2 24.8346 48.5714 -5.55112e-17
572 1 119.92 68.3979 -5.55112e-17
573 2 137.93 154.778 -5.55112e-17
574 2 215.713 169.005 -5.55112e-17
575 1 29.0022 148.002 -5.55112e-17
576 1 30.5423 101.816 -5.55112e-17
577 1 159.414 134.304 -5.55112e-17
578 1 212.074 135.359 -5.55112e-17
579 2 6.76702 64.6312 -5.55112e-17
580 1 161.113 74.2961 -5.55112e-17
581 1 184.403 19.2844 -5.55112e-17
582 2 58.0099 125.597 -5.55112e-17
583 2 132.486 196.358 -5.55112e-17
584 2 83.4437 1.92831 -5.55112e-17
585 1 181.893 74.4055 -5.55112e-17
586 1 44.6394 38.4635 -5.55112e-17
587 1 160.942 2.63455 -5.55112e-17
588 2 27.7708 183.518 -5.55112e-17
589 1 99.8698 59.5118 -5.55112e-17
590 2 75.9875 16.88 -5.55112e-17
591 2 141.87 37.1186 -5.55112e-17
592 1 34.1652 58.4817 -5.55112e-17
593 1 200.837 142.628 -5.55112e-17
594 1 197.667 65.156 -5.55112e-17
595 1 54.7648 74.7456 -5.55112e-17
596 2 59.3218 164.27 -5.55112e-17
597 2 187.864 113.349 -5.55112e-17
598 2 86.4695 162.825 -5.55112e-17
599 2 212.554 69.866 -5.55112e-17
600 2 163.654 67.4678 -5.55112e-17
601 1 78.306 10.0745 -5.55112e-17
602 1 101.165 103.873 -5.55112e-17
603 2 23.6701 146.539 -5.55112e-17
604 1 133.963 160.958 -5.55112e-17
605 2 39.4239 155.62 -5.55112e-17
606 2 23.0516 93.1304 -5.55112e-17
607 2 126.485 70.4619 -5.55112e-17
608 2 156 114.596 -5.55112e-17
609 1 1.72122 209.971 -5.55112e-17
610 2 135.792 104.713 -5.55112e-17
611 1 55.7569 178.529 -5.55112e-17
612 1 108.822 109.676 -5.55112e-17
613 2 107.737 5.01182 -5.55112e-17
614 1 161.572 146.306 -5.55112e-17
615 1 30.0328 169.912 -5.55112e-17
616 2 150.19 143.567 -5.55112e-17
617 1 21.8804 18.1198 -5.55112e-17
618 1 1.09271 27.4615 -5.55112e-17
619 1 97.4182 157.528 -5.55112e-17
620 2 169.244 156.22 -5.55112e-17
621 2 62.4724 218.302 -5.55112e-17
622 2 31.4194 4.88442 -5.55112e-17
623 2 70.6306 96.7643 -5.55112e-17
624 1 103.758 172.963 -5.55112e-17
625 2 84.8404 6.33123 -5.55112e-17
626 1 20.7702 52.1146 -5.55112e-17
627 2 153.17 152.548 -5.55112e-17
628 1 161.478 71.8527 -5.55112e-17
629 1 153.866 0.27868 -5.55112e-17
630 2 91.5848 205.269 -5.55112e-17
631 2 34.3643 206.304 -5.55112e-17
632 2 143.96 112.488 -5.55112e-17
633 2 169.683 152.772 -5.55112e-17
634 2 176.557 162.575 -5.55112e-17
635 2 8.62295 39.6998 -5.55112e-17
636 1 140.611 196.657 -5.55112e-17
637 1 98.0486 140.039 -5.55112e-17
638 1 137.742 88.056 -5.55112e-17
639 2 180.711 87.0577 -5.55112e-17
640 2 49.9439 167.005 -5.55112e-17
641 1 171.271 177.312 -5.55112e-17
642 2 25.5221 55.8122 -5.55112e-17
643 1 36.0937 130.604 -5.55112e-17
644 2 98.4561 184.777 -5.55112e-17
645 2 136.661 190.205 -5.55112e-17
646 1 53.707 4.95132 -5.55112e-17
647 2 70.8675 137.141 -5.55112e-17
648 2 101.935 54.5599 -5.55112e-17
649 1 110.679 196.213 -5.55112e-17
650 1 110.857 65.2617 -5.55112e-17
651 1 53.6718 94.1844 -5.55112e-17
652 2 191.892 172.956 -5.55112e-17
653 2 45.866 211.416 -5.55112e-17
654 1 23.6076 216.738 -5.55112e-17
655 1 126.924 37.2905 -5.55112e-17
656 1 93.1028 214.651 -5.55112e-17
657 1 98.9715 210.028 -5.55112e-17
658 2 148.53 171.915 -5.55112e-17
659 2 111.866 59.2894 -5.55112e-17
660 1 37.6377 122.061 -5.55112e-17
661 2 97.6819 41.2735 -5.55112e-17
662 2 104.01 117.615 -5.55112e-17
663 1 66.4571 112.999 -5.55112e-17
664 1 73.2521 2.11643 -5.55112e-17
665 1 56.5685 151.804 -5.55112e-17
666 1 36.8009 104.544 -5.55112e-17
667 1 13.3336 211.861 -5.55112e-17
668 1 143.458 165.203 -5.55112e-17
669 1 127.585 4.90951 -5.55112e-17
670 2 129.421 51.2345 -5.55112e-17
671 1 47.6547 35.1688 -5.55112e-17
672 1 127.177 205.573 -5.55112e-17
673 2 146.66 208.789 -5.55112e-17
674 2 32.101 65.0952 -5.55112e-17
675 2 112.594 16.7396 -5.55112e-17
676 1 14.6984 84.7832 -5.55112e-17
677 2 29.1273 205.708 -5.55112e-17
678 1 169.248 210.05 -5.55112e-17
679 1 139.422 186.203 -5.55112e-17
680 2 94.3401 62.4352 -5.55112e-17
681 1 27.9094 118.35 -5.55112e-17
682 1 88.6777 123.892 -5.55112e-17
683 2 185.716 89.2156 -5.55112e-17
684 1 62.2404 111.93 -5.55112e-17
685 1 58.1982 51.6858 -5.55112e-17
686 1 37.949 179.229 -5.55112e-17
687 1 192.951 217.497 -5.55112e-17
688 1 156.303 35.1424 -5.55112e-17
689 2 48.0414 27.7552 -5.55112e-17
690 1 3.41857 85.7682 -5.55112e-17
691 2 179.455 206.068 -5.55112e-17
692 2 37.7227 139.658 -5.55112e-17
693 1 101.482 12.3376 -5.55112e-17
694 2 163.656 112.901 -5.55112e-17
695 2 183.656 4.25095 -5.55112e-17
696 2 176.87 201.628 -5.55112e-17
697 1 149.192 138.875 -5.55112e-17
698 2 58.3177 3.75169 -5.55112e-17
699 1 154.542 59.0408 -5.55112e-17
700 2 39.6441 53.968 -5.55112e-17
701 2 143.637 117.154 -5.55112e-17
702 1 13.0209 49.1161 -5.55112e-17
703 1 196.683 129.063 -5.55112e-17
704 1 52.618 167.794 -5.55112e-17
705 1 15.348 130.896 -5.55112e-17
706 1 45.5003 196.429 -5.55112e-17
707 1 50.8777 200.71 -5.55112e-17
708 2 147.432 42.6407 -5.55112e-17
709 1 118.431 196.222 -5.55112e-17
710 2 161.339 177.939 -5.55112e-17
711 2 136.451 110.509 -5.55112e-17
712 1 2.21513 218.169 -5.55112e-17
713 1 125.039 198.664 -5.55112e-17
714 2 152.594 167.522 -5.55112e-17
715 2 89.5874 203.093 -5.55112e-17
716 1 46.051 49.509 -5.55112e-17
717 1 99.7826 115.687 -5.55112e-17
718 2 51.0838 95.0413 -5.55112e-17
719 1 153.95 147.015 -5.55112e-17
720 2 1.36486 122.574 -5.55112e-17
721 2 51.4908 104.137 -5.55112e-17
722 2 94.0011 206.88 -5.55112e-17
723 2 189.388 162.382 -5.55112e-17
724 2 152.72 118.091 -5.55112e-17
725 2 72.5557 197.825 -5.55112e-17
726 2 25.4247 187.993 -5.55112e-17
727 2 216.337 129.933 -5.55112e-17
728 1 180.819 50.4686 -5.55112e-17
729 2 170.347 187.511 -5.55112e-17
730 2 200.121 15.1482 -5.55112e-17
731 1 120.748 20.1273 -5.55112e-17
732 2 217.117 15.0791 -5.55112e-17
733 2 91.1612 94.5211 -5.55112e-17
734 2 194.031 151.791 -5.55112e-17
735 2 73.7286 78.7548 -5.55112e-17
736 1 47.4416 105.44 -5.55112e-17
737 2 119.292 57.9682 -5.55112e-17
738 2 197.826 84.3393 -5.55112e-17
739 2 190.64 65.6726 -5.55112e-17
740 2 211.986 32.4693 -5.55112e-17
741 2 111.819 157.785 -5.55112e-17
742 1 209.978 37.7887 -5.55112e-17
743 2 190.132 116.993 -5.55112e-17
744 1 26.5143 130.18 -5.55112e-17
745 2 46.9193 156.785 -5.55112e-17
746 1 186.965 19.5915 -5.55112e-17
747 1 113.585 169.276 -5.55112e-17
748 2 183.303 22.0102 -5.55112e-17
749 1 169.763 145.351 -5.55112e-17
750 1 2.95223 193.582 -5.55112e-17
751 1 13.4317 131.627 -5.55112e-17
752 2 194.217 187.942 -5.55112e-17
753 1 15.5838 211.142 -5.55112e-17
754 2 195.408 165.784 -5.55112e-17
755 1 216.112 160.533 -5.55112e-17
756 2 202.444 13.6626 -5.55112e-17
757 1 133.724 53.7194 -5.55112e-17
758 2 69.7987 64.4589 -5.55112e-17
759 1 140.452 125.482 -5.55112e-17
760 1 100.05 50.7989 -5.55112e-17
761 2 80.1366 83.6767 -5.55112e-17
762 1 180.797 46.6732 -5.55112e-17
763 2 162.757 194.455 -5.55112e-17
764 2 33.8064 132.128 -5.55112e-17
765 1 105.228 156.626 -5.55112e-17
766 2 21.3501 161.616 -5.55112e-17
767 2 58.2538 179.455 -5.55112e-17
768 2 116.686 77.3326 -5.55112e-17
769 2 174 71.5459 -5.55112e-17
770 1 14.9229 96.0459 -5.55112e-17
771 1 158.054 192.186 -5.55112e-17
772 1 159.934 118.297 -5.55112e-17
773 2 193.335 195.065 -5.55112e-17
774 1 35.6212 100.696 -5.55112e-17
775 1 100.917 24.837 -5.55112e-17
776 2 207.408 171.366 -5.55112e-17
777 2 192.537 144.04 -5.55112e-17
778 1 7.27078 26.6184 -5.55112e-17
779 1 186.523 205.392 -5.55112e-17
780 2 214.488 23.6538 -5.55112e-17
781 1 12.1149 28.199 -5.55112e-17
782 2 63.0975 82.3663 -5.55112e-17
783 1 62.8351 25.7911 -5.55112e-17
784 2 106.511 95.8397 -5.55112e-17
785 1 117.77 47.5552 -5.55112e-17
786 1 79.5835 182.399 -5.55112e-17
787 2 42.0862 118.399 -5.55112e-17
788 2 145.175 178.557 -5.55112e-17
789 2 94.578 107.657 -5.55112e-17
790 2 189.22 209.617 -5.55112e-17
791 2 80.8598 217.194 -5.55112e-17
792 1 161.019 17.0407 -5.55112e-17
793 1 171.445 128.853 -5.55112e-17
794 2 44.427 208.417 -5.55112e-17
795 2 96.0422 141.774 -5.55112e-17
796 1 2.20482 64.0529 -5.55112e-17
797 1 99.7459 125.236 -5.55112e-17
798 1 213.122 34.6383 -5.55112e-17
799 2 178.618 32.3186 -5.55112e-17
800 1 63.2636 144.133 -5.55112e-17
801 2 71.3113 144.675 -5.55112e-17
802 1 190.021 14.1747 -5.55112e-17
803 1 1.81268 61.8853 -5.55112e-17
804 1 113.362 115.211 -5.55112e-17
805 2 94.306 203.53 -5.55112e-17
806 2 140.631 56.4496 -5.55112e-17
807 2 43.3501 84.8763 -5.55112e-17
808 2 125.626 154.388 -5.55112e-17
809 1 8.69627 9.89982 -5.55112e-17
810 2 6.13408 51.532 -5.55112e-17
811 2 124.958 59.3656 -5.55112e-17
812 1 96.599 53.0288 -5.55112e-17
813 1 20.9085 14.4117 -5.55112e-17
814 1 62.3906 213.009 -5.55112e-17
815 1 157.466 13.4404 -5.55112e-17
816 1 216.528 156.144 -5.55112e-17
817 2 186.401 213.689 -5.55112e-17
818 2 65.7462 194.471 -5.55112e-17
819 2 217.778 45.0197 -5.55112e-17
820 1 129.538 120.192 -5.55112e-17
821 1 40.6468 21.3058 -5.55112e-17
822 2 185.387 119.39 -5.55112e-17
823 1 200.881 62.0185 -5.55112e-17
824 1 40.3732 88.3448 -5.55112e-17
825 1 11.2665 58.5452 -5.55112e-17
826 2 91.8805 86.8927 -5.55112e-17
827 2 35.6368 171.998 -5.55112e-17
828 1 92.3101 52.3457 -5.55112e-17
829 2 207.851 15.9182 -5.55112e-17
830 1 208.724 85.1786 -5.55112e-17
831 2 19.0813 214.364 -5.55112e-17
832 2 79.7388 72.8995 -5.55112e-17
833 2 59.0095 201.039 -5.55112e-17
834 1 118.086 67.2813 -5.55112e-17
835 1 154.753 204.899 -5.55112e-17
836 1 19.1068 44.515 -5.55112e-17
837 2 128.388 194.961 -5.55112e-17
838 2 185.597 101.76 -5.55112e-17
839 1 2.40585 146.814 -5.55112e-17
840 2 30.3764 135.876 -5.55112e-17
841 2 74.05 135.792 -5.55112e-17
842 1 7.84606 154.991 -5.55112e-17
843 1 181.747 19.6297 -5.55112e-17
844 2 93.4025 45.4674 -5.55112e-17
845 1 205.257 161.124 -5.55112e-17
846 2 17.5311 209.735 -5.55112e-17
847 1 149.028 187.721 -5.55112e-17
848 2 91.0722 216.693 -5.55112e-17
849 1 213.574 118.155 -5.55112e-17
850 2 102.425 145.285 -5.55112e-17
851 2 193.127 111.217 -5.55112e-17
852 1 17.6215 200.663 -5.55112e-17
853 1 61.5355 121.739 -5.55112e-17
854 2 67.8247 192.653 -5.55112e-17
855 2 214.448 58.4068 -5.55112e-17
856 1 214.066 67.6551 -5.55112e-17