ITEM: TIMESTEP
0
ITEM: NUMBER OF ATOMS
7200
ITEM: BOX BOUNDS xy xz yz pp pp pp
0.0000000000000000e+00 2.1900000000000000e+02 0.0000000000000000e+00
0.0000000000000000e+00 2.1900000000000000e+02 0.0000000000000000e+00
-3.6499999999999999e-01 3.6499999999999999e-01 0.0000000000000000e+00
ITEM: ATOMS id type x y z
1 1 182.942 12.4413 -5.55112e-17
2 2 188.103 184.034 -5.55112e-17
3 2 144.712 189.495 -5.55112e-17
4 1 122.633 109.747 -5.55112e-17
5 1 101.307 122.983 -5.55112e-17
6 1 104.576 24.9804 -5.55112e-17
7 2 159.936 128.731 -5.55112e-17
8 2 70.281 26.3006 -5.55112e-17
9 1 21.9894 214.851 -5.55112e-17
10 2 52.4358 166.928 -5.55112e-17
11 2 210.046 100.126 -5.55112e-17
12 1 33.661 197.615 -5.55112e-17
13 2 195.122 54.258 -5.55112e-17
14 1 57.6982 184.832 -5.55112e-17
15 2 193.677 218.819 -5.55112e-17
16 2 218.588 86.0229 -5.55112e-17
17 1 67.358 74.486 -5.55112e-17
18 2 10.5397 172.208 -5.55112e-17
19 1 93.0603 130.495 -5.55112e-17
20 1 72.7064 11.4108 -5.55112e-17
21 1 157.217 7.77498 -5.55112e-17
22 2 31.9196 212.464 -5.55112e-17
23 2 43.408 208.074 -5.55112e-17
24 2 218.029 102.77 -5.55112e-17
25 2 30.0303 207.677 -5.55112e-17
26 2 149.379 27.3222 -5.55112e-17
27 1 217.124 162.345 -5.55112e-17
28 2 54.0736 154.817 -5.55112e-17
29 2 83.5261 4.18081 -5.55112e-17
30 2 132.394 37.549 -5.55112e-17
31 2 156.553 83.7429 -5.55112e-17
32 1 48.4892 109.032 -5.55112e-17
33 2 145.329 86.7866 -5.55112e-17
34 2 16.6366 95.9445 -5.55112e-17
35 2 126.875 11.1256 -5.55112e-17
36 1 160.64 145.972 -5.55112e-17
37 1 133.277 184.868 -5.55112e-17
38 2 208.632 157.77 -5.55112e-17
39 1 7.93846 38.4766 -5.55112e-17
40 2 196.737 73.5615 -5.55112e-17
41 1 192.951 73.0722 -5.55112e-17
42 1 54.4159 59.0293 -5.55112e-17
43 1 209.579 132.036 -5.55112e-17
44 1 155.295 188.651 -5.55112e-17
45 2 159.78 61.2129 -5.55112e-17
46 1 124.544 192.884 -5.55112e-17
47 2 89.1961 78.5372 -5.55112e-17
48 2 149.776 129.394 -5.55112e-17
49 1 194.75 199.828 -5.55112e-17
50 2 28.4724 45.7127 -5.55112e-17
51 1 187.012 3.00392 -5.55112e-17
52 1 115.565 47.6168 -5.55112e-17
53 2 55.223 201.226 -5.55112e-17
54 1 39.2873 18.047 -5.55112e-17
55 2 53.2935 141.055 -5.55112e-17
56 1 31.3055 132.454 -5.55112e-17
57 2 58.703 134.034 -5.55112e-17
58 1 185.948 36.8617 -5.55112e-17
59 1 157.423 86.116 -5.55112e-17
60 2 206.76 59.8022 -5.55112e-17
61 1 157.006 164.053 -5.55112e-17
62 1 106.644 112 -5.55112e-17
63 2 108.722 38.5973 -5.55112e-17
64 1 28.0979 18.4114 -5.55112e-17
65 2 152.479 148.27 -5.55112e-17
66 2 12.7718 154.928 -5.55112e-17
67 2 182.824 107.778 -5.55112e-17
68 1 136.577 82.8808 -5.55112e-17
69 2 109.67 169.181 -5.55112e-17
70 1 141.63 97.5801 -5.55112e-17
71 1 198.055 147.542 -5.55112e-17
72 2 44.7611 157.345 -5.55112e-17
73 2 191.996 180.007 -5.55112e-17
74 2 111.763 66.7216 -5.55112e-17
75 1 14.5704 136.441 -5.55112e-17
76 2 138.199 206.551 -5.55112e-17
77 2 169.02 14.5761 -5.55112e-17
78 1 93.2573 208.069 -5.55112e-17
79 2 60.5742 75.9156 -5.55112e-17
80 1 49.8699 23.7201 -5.55112e-17
81 1 182.241 211.139 -5.55112e-17
82 1 173.338 41.6128 -5.55112e-17
83 1 71.2574 91.2636 -5.55112e-17
84 2 140.827 179.662 -5.55112e-17
85 2 151.031 145.595 -5.55112e-17
86 2 50.8226 68.5749 -5.55112e-17
87 2 38.5712 75.817 -5.55112e-17
88 1 80.3489 157.47 -5.55112e-17
89 2 199.319 105.26 -5.55112e-17
90 2 126.245 35.8533 -5.55112e-17
91 2 11.1956 182.092 -5.55112e-17
92 1 27.6579 215.289 -5.55112e-17
93 2 110.054 155.135 -5.55112e-17
94 2 112.852 144.629 -5.55112e-17
95 1 211.244 51.9984 -5.55112e-17
96 2 32.162 54.4372 -5.55112e-17
97 2 4.6926 211.682 -5.55112e-17
98 2 35.8556 184.851 -5.55112e-17
99 1 104.932 9.43539 -5.55112e-17
100 2 159.044 65.6367 -5.55112e-17
101 1 184.25 110.057 -5.55112e-17
102 1 65.9998 163.858 -5.55112e-17
103 2 204.772 100.123 -5.55112e-17
104 2 104.482 72.3067 -5.55112e-17
105 1 160.96 58.81 -5.55112e-17
106 1 185.165 60.3905 -5.55112e-17
107 1 9.28195 106.673 -5.55112e-17
108 1 70.534 210.768 -5.55112e-17
109 2 217.413 39.5193 -5.55112e-17
110 2 144.915 29.519 -5.55112e-17
111 1 53.1714 92.3445 -5.55112e-17
112 2 8.2949 50.841 -5.55112e-17
113 1 134.344 10.5412 -5.55112e-17
114 1 93.6218 81.9617 -5.55112e-17
115 2 32.1136 59.8856 -5.55112e-17
116 2 183.813 15.2202 -5.55112e-17
117 1 163.427 110.671 -5.55112e-17
118 1 82.9837 94.1126 -5.55112e-17
119 2 99.0751 139.724 -5.55112e-17
120 2 201.798 58.7055 -5.55112e-17
121 1 205.068 138.852 -5.55112e-17
122 2 143.026 129.828 -5.55112e-17
123 2 6.80169 130.013 -5.55112e-17
124 1 161.634 199.483 -5.55112e-17
125 1 88.0579 192.797 -5.55112e-17
126 2 94.8178 84.3754 -5.55112e-17
127 2 208.361 110.64 -5.55112e-17
128 1 121.633 104.81 -5.55112e-17
129 1 144.051 194.505 -5.55112e-17
130 2 120.212 60.9799 -5.55112e-17
131 1 134.091 60.5149 -5.55112e-17
132 1 139.506 21.6307 -5.55112e-17
133 1 180.865 105.495 -5.55112e-17
134 1 81.0496 191.643 -5.55112e-17
135 2 177.671 61.1947 -5.55112e-17
136 1 190.59 118.937 -5.55112e-17
137 1 61.0028 8.27861 -5.55112e-17
138 2 155.922 158.382 -5.55112e-17
139 1 132.205 11.7645 -5.55112e-17
140 1 145.35 208.379 -5.55112e-17
141 1 50.8615 71.1677 -5.55112e-17
142 1 213.533 190.935 -5.55112e-17
143 1 26.3079 26.1958 -5.55112e-17
144 1 46.4796 97.6722 -5.55112e-17
145 2 193.233 80.0161 -5.55112e-17
146 1 151.838 127.699 -5.55112e-17
147 2 16.5421 134.474 -5.55112e-17
148 1 24.5217 132.993 -5.55112e-17
149 1 147.495 190.349 -5.55112e-17
150 2 65.4757 52.8844 -5.55112e-17
151 1 132.113 138.255 -5.55112e-17
152 1 164.157 163.085 -5.55112e-17
153 2 123.864 130.306 -5.55112e-17
154 1 184.141 52.6459 -5.55112e-17
155 2 203.449 40.1495 -5.55112e-17
156 2 109.673 197.038 -5.55112e-17
157 2 168.013 25.6497 -5.55112e-17
158 2 28.1593 7.50906 -5.55112e-17
159 2 11.8165 158.426 -5.55112e-17
160 2 120.738 54.882 -5.55112e-17
161 2 129.655 138.929 -5.55112e-17
162 1 24.1901 65.0656 -5.55112e-17
163 1 189.303 33.7836 -5.55112e-17
164 2 108.275 134.81 -5.55112e-17
165 1 48.8533 72.6184 -5.55112e-17
166 2 6.3118 199.755 -5.55112e-17
167 1 107.215 168.463 -5.55112e-17
168 1 210.819 102.796 -5.55112e-17
169 2 98.0167 199.282 -5.55112e-17
170 1 66.5889 207.079 -5.55112e-17
171 1 137.476 92.0713 -5.55112e-17
172 1 199.968 199.388 -5.55112e-17
173 1 39.352 203.64 -5.55112e-17
174 2 38.6637 173.345 -5.55112e-17
175 2 50.2398 199.731 -5.55112e-17
176 1 119.739 151.931 -5.55112e-17
177 2 104.869 15.0838 -5.55112e-17
178 1 25.4683 7.39419 -5.55112e-17
179 2 106.53 197.218 -5.55112e-17
180 1 47.1137 76.9596 -5.55112e-17
181 1 16.2396 119.36 -5.55112e-17
182 1 113.739 86.3739 -5.55112e-17
183 1 63.816 168.634 -5.55112e-17
184 2 157.531 25.3905 -5.55112e-17
185 2 190.293 78.6743 -5.55112e-17
186 2 74.6795 206.631 -5.55112e-17
187 2 159.308 201.269 -5.55112e-17
188 2 60.7384 28.7276 -5.55112e-17
189 1 190.881 61.8021 -5.55112e-17
190 1 196.348 56.685 -5.55112e-17
191 2 35.462 104.435 -5.55112e-17
192 2 89.7735 60.4567 -5.55112e-17
193 1 108.848 166.389 -5.55112e-17
194 1 26.9625 5.18708 -5.55112e-17
195 2 58.6814 119.613 -5.55112e-17
196 1 0.63137 218.614 -5.55112e-17
197 2 120.415 48.8066 -5.55112e-17
198 2 206.34 27.3697 -5.55112e-17
199 2 99.1541 170.957 -5.55112e-17
200 2 98.5452 31.1922 -5.55112e-17
201 2 103.242 121.222 -5.55112e-17
202 1 44.1706 33.944 -5.55112e-17
203 1 17.8912 43.0028 -5.55112e-17
204 2 44.8391 78.6366 -5.55112e-17
205 2 183.198 182.535 -5.55112e-17
206 2 169.204 127.13 -5.55112e-17
207 1 74.235 189.638 -5.55112e-17
208 2 135.023 54.2436 -5.55112e-17
209 2 32.7903 142.225 -5.55112e-17
210 1 181.842 113.208 -5.55112e-17
211 1 208.687 35.5489 -5.55112e-17
212 1 208.569 85.0992 -5.55112e-17
213 1 127.506 123.576 -5.55112e-17
214 2 12.3549 11.5742 -5.55112e-17
215 1 4.94077 142.195 -5.55112e-17
216 1 54.9898 47.1212 -5.55112e-17
217 1 165.138 61.76 -5.55112e-17
218 2 200.8 121.368 -5.55112e-17
219 2 136.183 189.406 -5.55112e-17
220 1 120.605 1.26433 -5.55112e-17
221 2 82.5896 6.95879 -5.55112e-17
222 1 158.352 156.951 -5.55112e-17
223 1 46.1653 120.505 -5.55112e-17
224 2 146.058 70.774 -5.55112e-17
225 2 169.134 164.02 -5.55112e-17
226 1 196.982 10.1943 -5.55112e-17
227 2 203.646 214.65 -5.55112e-17
228 2 117.849 63.1506 -5.55112e-17
229 1 47.7036 22.9751 -5.55112e-17
230 1 4.72534 57.0458 -5.55112e-17
231 2 137.765 160.537 -5.55112e-17
232 1 18.1768 212.573 -5.55112e-17
233 2 75.6679 196.081 -5.55112e-17
234 1 0.528811 60.1173 -5.55112e-17
235 1 150.384 106.059 -5.55112e-17
236 2 153.428 52.9555 -5.55112e-17
237 2 99.3833 203.789 -5.55112e-17
238 2 94.9558 140.881 -5.55112e-17
239 1 35.3972 216.878 -5.55112e-17
240 1 129.468 90.7757 -5.55112e-17
241 2 3.42404 124.433 -5.55112e-17
242 1 194.126 28.1153 -5.55112e-17
243 2 214.361 129.883 -5.55112e-17
244 2 35.6729 190.713 -5.55112e-17
245 1 173.555 20.8735 -5.55112e-17
246 2 89.8291 84.8107 -5.55112e-17
247 2 198.549 150.289 -5.55112e-17
248 1 37.9801 26.4525 -5.55112e-17
249 1 131.434 108.223 -5.55112e-17
250 1 134.432 27.5972 -5.55112e-17
251 2 102.225 43.0732 -5.55112e-17
252 1 110.946 157.421 -5.55112e-17
253 2 94.1213 98.2382 -5.55112e-17
254 2 179.655 205.173 -5.55112e-17
255 2 120.948 51.8714 -5.55112e-17
256 1 3.13282 179.793 -5.55112e-17
257 2 32.443 194.983 -5.55112e-17
258 1 211.05 81.173 -5.55112e-17
259 2 161.662 140.862 -5.55112e-17
260 1 39.9447 192.619 -5.55112e-17
261 2 142.887 176.969 -5.55112e-17
262 2 186.621 110.544 -5.55112e-17
263 2 93.8468 173.095 -5.55112e-17
264 1 199.238 36.4478 -5.55112e-17
265 1 157.503 186.903 -5.55112e-17
266 1 98.6287 196.598 -5.55112e-17
267 2 115.354 16.0004 -5.55112e-17
268 1 218.387 49.0087 -5.55112e-17
269 2 10.4617 113.455 -5.55112e-17
270 2 185.227 148.646 -5.55112e-17
271 2 187.575 94.8837 -5.55112e-17
272 1 59.5114 26.5492 -5.55112e-17
273 1 70.6623 83.2382 -5.55112e-17
274 1 37.7448 196.363 -5.55112e-17
275 1 146.585 109.812 -5.55112e-17
276 1 199.388 74.7689 -5.55112e-17
277 1 100.358 37.9352 -5.55112e-17
278 2 60.8251 145.102 -5.55112e-17
279 2 160.166 86.4253 -5.55112e-17
280 1 116.927 210.605 -5.55112e-17
281 2 169.718 182.163 -5.55112e-17
282 2 75.1449 127.367 -5.55112e-17
283 2 218.652 150.991 -5.55112e-17
284 1 125.757 113.057 -5.55112e-17
285 1 72.9491 165.565 -5.55112e-17
286 2 30.3072 180.361 -5.55112e-17
287 2 92.943 110.272 -5.55112e-17
288 1 104.344 123.65 -5.55112e-17
289 2 193.739 57.0183 -5.55112e-17
290 1 101.345 30.4372 -5.55112e-17
291 2 96.372 185.856 -5.55112e-17
292 1 77.038 125.586 -5.55112e-17
293 1 159.123 167.606 -5.55112e-17
294 1 29.7268 177.822 -5.55112e-17
295 2 46.6777 145.567 -5.55112e-17
296 1 196.985 176.689 -5.55112e-17
297 1 2.36577 18.4542 -5.55112e-17
298 2 30.5001 140.493 -5.55112e-17
299 1 177.426 55.4643 -5.55112e-17
300 2 190.37 193.065 -5.55112e-17
301 2 171.996 18.768 -5.55112e-17
302 2 163.775 89.4184 -5.55112e-17
303 1 2.13073 151.454 -5.55112e-17
304 1 124.073 105.649 -5.55112e-17
305 1 91.5042 177.768 -5.55112e-17
306 2 83.8004 18.3344 -5.55112e-17
307 2 150.508 167.907 -5.55112e-17
308 2 141.99 22.342 -5.55112e-17
309 1 71.3124 72.3583 -5.55112e-17
310 1 190.851 190.603 -5.55112e-17
311 1 150.849 108.596 -5.55112e-17
312 2 134.611 13.3874 -5.55112e-17
313 2 155.218 17.2024 -5.55112e-17
314 1 184.156 58.0464 -5.55112e-17
315 2 57.0646 107.618 -5.55112e-17
316 1 95.8927 31.0841 -5.55112e-17
317 1 133.245 175.861 -5.55112e-17
318 1 215.795 135.049 -5.55112e-17
319 2 74.321 201.397 -5.55112e-17
320 1 214.069 48.1214 -5.55112e-17
321 1 52.6732 87.4002 -5.55112e-17
322 1 51.3576 147.901 -5.55112e-17
323 2 19.8675 138.464 -5.55112e-17
324 2 8.29845 95.4024 -5.55112e-17
325 2 216.496 13.6389 -5.55112e-17
326 1 185.396 1.01628 -5.55112e-17
327 1 36.2022 46.1407 -5.55112e-17
328 2 32.7412 191.927 -5.55112e-17
329 2 28.4916 83.2272 -5.55112e-17
330 2 153.604 38.5952 -5.55112e-17
331 2 188.039 68.0102 -5.55112e-17
332 2 121.205 114.376 -5.55112e-17
333 2 28.2524 151.157 -5.55112e-17
334 2 216.134 18.424 -5.55112e-17
335 1 167.337 210.894 -5.55112e-17
336 2 27.4855 141.745 -5.55112e-17
337 2 40.8949 10.2252 -5.55112e-17
338 1 203.495 90.3154 -5.55112e-17
339 2 14.928 152.224 -5.55112e-17
340 2 177.36 214.405 -5.55112e-17
341 2 101.191 60.7883 -5.55112e-17
342 2 173.38 166.629 -5.55112e-17
343 2 176.522 4.46904 -5.55112e-17
344 1 87.4595 105.816 -5.55112e-17
345 2 26.9131 212.793 -5.55112e-17
346 2 76.1146 72.4836 -5.55112e-17
347 1 147.864 98.5959 -5.55112e-17
348 1 181.814 3.59472 -5.55112e-17
349 2 173.307 70.0798 -5.55112e-17
350 2 77.5207 179.115 -5.55112e-17
351 1 173.037 139.297 -5.55112e-17
352 1 212.613 163.341 -5.55112e-17
353 2 141.155 132.042 -5.55112e-17
354 2 191.655 176.651 -5.55112e-17
355 1 215.605 157.324 -5.55112e-17
356 2 114.72 1.23081 -5.55112e-17
357 1 127.069 192.783 -5.55112e-17
358 1 78.0835 26.4753 -5.55112e-17
359 1 35.106 143.845 -5.55112e-17
360 1 54.0512 7.45556 -5.55112e-17
361 2 196.881 68.264 -5.55112e-17
362 2 172.27 95.308 -5.55112e-17
363 1 78.8393 215.873 -5.55112e-17
364 2 217.195 46.804 -5.55112e-17
365 1 5.7081 164.267 -5.55112e-17
366 1 82.1537 173.082 -5.55112e-17
367 1 161.102 104.068 -5.55112e-17
368 1 20.7328 164.188 -5.55112e-17
369 2 81.7362 143.897 -5.55112e-17
370 1 6.03386 132.474 -5.55112e-17
371 2 71.569 111.259 -5.55112e-17
372 1 87.6414 6.82949 -5.55112e-17
373 2 118.236 208.316 -5.55112e-17
374 2 176.947 101.707 -5.55112e-17
375 1 135.955 25.7543 -5.55112e-17
376 1 121.669 147.34 -5.55112e-17
377 2 95.8947 75.9944 -5.55112e-17
378 2 215.04 106.882 -5.55112e-17
379 2 169.774 186.938 -5.55112e-17
380 1 199.817 34.0257 -5.55112e-17
381 1 175.089 67.7656 -5.55112e-17
382 1 122.08 27.032 -5.55112e-17
383 1 110.105 82.7344 -5.55112e-17
384 2 54.0005 100.86 -5.55112e-17
385 1 66.1395 148.864 -5.55112e-17
386 2 179.804 175.342 -5.55112e-17
387 1 34.7541 107.07 -5.55112e-17
388 1 143.878 164.379 -5.55112e-17
389 2 215.745 121.142 -5.55112e-17
390 1 104.742 65.2143 -5.55112e-17
391 1 204.04 217.451 -5.55112e-17
392 2 3.69415 101.638 -5.55112e-17
393 2 192.818 173.93 -5.55112e-17
394 1 36.3556 203.55 -5.55112e-17
395 1 19.1566 215.011 -5.55112e-17
396 2 75.3048 88.3006 -5.55112e-17
397 1 67.6297 42.6235 -5.55112e-17
398 2 165.873 111.155 -5.55112e-17
399 2 196.68 106.576 -5.55112e-17
400 2 123.676 68.801 -5.55112e-17
401 2 83.6653 190.502 -5.55112e-17
402 1 84.5332 43.5741 -5.55112e-17
403 1 69.9622 116.743 -5.55112e-17
404 2 112.771 13.6444 -5.55112e-17
405 1 49.6017 197.19 -5.55112e-17
406 2 217.144 95.0553 -5.55112e-17
407 1 123.77 78.6425 -5.55112e-17
408 1 130.094 29.1087 -5.55112e-17
409 2 213.898 115.816 -5.55112e-17
410 2 70.4615 159.057 -5.55112e-17
411 1 136.384 96.574 -5.55112e-17
412 1 164.53 6.60976 -5.55112e-17
413 1 34.4933 85.9485 -5.55112e-17
414 2 193.715 202.328 -5.55112e-17
415 1 107.613 126.718 -5.55112e-17
416 1 176.136 51.7892 -5.55112e-17
417 2 107.533 129.354 -5.55112e-17
418 2 34.8267 179.298 -5.55112e-17
419 2 195.119 91.7615 -5.55112e-17
420 2 108.538 44.0157 -5.55112e-17
421 1 70.5261 31.2239 -5.55112e-17
422 1 34.7182 59.3978 -5.55112e-17
423 2 116.486 125.158 -5.55112e-17
424 2 38.8182 23.4554 -5.55112e-17
425 2 117.169 150.879 -5.55112e-17
426 1 185.734 96.765 -5.55112e-17
427 2 73.3337 59.8378 -5.55112e-17
428 1 28.8934 175.017 -5.55112e-17
429 2 131.215 150.283 -5.55112e-17
430 2 111.495 103.747 -5.55112e-17
431 1 13.272 9.25132 -5.55112e-17
432 2 173.975 2.76605 -5.55112e-17
433 1 187.274 198.963 -5.55112e-17
434 1 20.0379 204.877 -5.55112e-17
435 1 149.541 85.1832 -5.55112e-17
436 2 85.2011 198.721 -5.55112e-17
437 2 181.124 82.7015 -5.55112e-17
438 2 194.419 177.797 -5.55112e-17
439 2 92.4821 10.9084 -5.55112e-17
440 2 201.211 92.1166 -5.55112e-17
441 1 130.935 167.467 -5.55112e-17
442 1 37.9257 104.591 -5.55112e-17
443 2 79.0442 82.0176 -5.55112e-17
444 1 204.334 104.794 -5.55112e-17
445 1 171.48 135.401 -5.55112e-17
446 2 183.222 150.841 -5.55112e-17
447 2 40.6982 40.0776 -5.55112e-17
448 2 205.89 176.201 -5.55112e-17
449 1 41.4046 177.492 -5.55112e-17
450 1 10.7658 126.668 -5.55112e-17
451 1 54.089 209.727 -5.55112e-17
452 2 209.269 61.422 -5.55112e-17
453 1 216.042 150.379 -5.55112e-17
454 1 3.3466 69.4248 -5.55112e-17
455 2 81.4944 131.511 -5.55112e-17
456 1 85.1266 1.9864 -5.55112e-17
457 2 140.591 145.165 -5.55112e-17
458 2 155.267 135.274 -5.55112e-17
459 2 133.286 51.1806 -5.55112e-17
460 1 197.308 169.946 -5.55112e-17
461 1 111.982 128.535 -5.55112e-17
462 1 104.111 196.392 -5.55112e-17
463 2 109.869 218.467 -5.55112e-17
464 2 14.0003 77.9264 -5.55112e-17
465 1 123.697 15.9862 -5.55112e-17
466 2 149.871 126.204 -5.55112e-17
467 2 66.1296 133.171 -5.55112e-17
468 2 123.896 125.443 -5.55112e-17
469 2 57.7854 71.9631 -5.55112e-17
470 2 208.465 154.633 -5.55112e-17
471 2 212.562 211.406 -5.55112e-17
472 2 110.935 36.6638 -5.55112e-17
473 2 198.282 214.237 -5.55112e-17
474 2 85.0378 147.246 -5.55112e-17
475 1 163.7 183.054 -5.55112e-17
476 2 174.5 34.8132 -5.55112e-17
477 1 209.248 217.871 -5.55112e-17
478 1 45.8934 188.676 -5.55112e-17
479 2 0.89657 197.721 -5.55112e-17
480 1 83.2844 62.1652 -5.55112e-17
481 1 3.12375 209.272 -5.55112e-17
482 2 152.661 176.745 -5.55112e-17
483 1 134.65 209.373 -5.55112e-17
484 1 66.509 135.842 -5.55112e-17
485 2 13.8755 173.738 -5.55112e-17
486 1 132.852 72.4363 -5.55112e-17
487 1 13.4977 201.917 -5.55112e-17
488 1 49.9144 83.641 -5.55112e-17
489 1 70.6213 108.922 -5.55112e-17
490 1 164.611 73.2924 -5.55112e-17
491 1 163.029 75.5439 -5.55112e-17
492 2 209.29 15.3413 -5.55112e-17
493 1 93.9154 203.141 -5.55112e-17
494 2 77.0642 65.9864 -5.55112e-17
495 1 150.019 92.0692 -5.55112e-17
496 1 52.3846 123.286 -5.55112e-17
497 1 136.541 109.711 -5.55112e-17
498 2 145.374 38.9415 -5.55112e-17
499 2 177.893 119.858 -5.55112e-17
500 2 57.4671 32.7879 -5.55112e-17
501 2 14.4578 139.339 -5.55112e-17
502 2 189.157 128.022 -5.55112e-17
503 2 57.1074 63.5097 -5.55112e-17
504 2 98.4294 50.3096 -5.55112e-17
505 2 112.349 213.634 -5.55112e-17
506 1 207.31 5.91778 -5.55112e-17
507 2 49.9121 182.615 -5.55112e-17
508 1 140.602 59.0077 -5.55112e-17
509 1 209.66 47.6082 -5.55112e-17
510 1 195.193 104.078 -5.55112e-17
511 2 108.611 179.596 -5.55112e-17
512 1 10.8128 42.8462 -5.55112e-17
513 2 87.6807 183.162 -5.55112e-17
514 2 15.3999 87.5422 -5.55112e-17
515 1 60.578 98.3521 -5.55112e-17
516 2 101.721 73.4168 -5.55112e-17
517 1 32.2549 147.175 -5.55112e-17
518 2 10.7752 13.9332 -5.55112e-17
519 1 124.787 92.0965 -5.55112e-17
520 2 209.489 93.8606 -5.55112e-17
521 2 130.448 39.6674 -5.55112e-17
522 1 187.48 7.66258 -5.55112e-17
523 1 127.455 99.4079 -5.55112e-17
524 2 174.968 18.4068 -5.55112e-17
525 2 185.658 45.8833 -5.55112e-17
526 2 107.942 16.0128 -5.55112e-17
527 1 169.403 23.3275 -5.55112e-17
528 1 213.332 201.722 -5.55112e-17
529 2 104.537 175.967 -5.55112e-17
530 2 18.6596 87.9131 -5.55112e-17
531 2 185.166 172.944 -5.55112e-17
532 1 80.8571 4.84099 -5.55112e-17
533 2 23.2405 158.081 -5.55112e-17
534 1 22.7374 168.102 -5.55112e-17
535 1 170.354 206.814 -5.55112e-17
536 2 18.1655 169.332 -5.55112e-17
537 1 142.396 28.9775 -5.55112e-17
538 1 68.1628 157.956 -5.55112e-17
539 2 81.0372 162.952 -5.55112e-17
540 1 35.1944 182.139 -5.55112e-17
541 1 105.07 129.149 -5.55112e-17
542 1 58.3477 126.513 -5.55112e-17
543 2 120.315 169.107 -5.55112e-17
544 1 218.07 211.523 -5.55112e-17
545 1 174.743 72.3688 -5.55112e-17
546 2 187.107 10.0634 -5.55112e-17
547 1 12.7347 71.4933 -5.55112e-17
548 1 29.5641 5.433 -5.55112e-17
549 2 35.0659 152.335 -5.55112e-17
550 2 165.414 193.272 -5.55112e-17
551 2 38.3591 7.52562 -5.55112e-17
552 1 30.7719 52.2157 -5.55112e-17
553 2 207.507 196.537 -5.55112e-17
554 2 144.276 33.7883 -5.55112e-17
555 2 176.204 134.348 -5.55112e-17
556 1 178.229 211.963 -5.55112e-17
557 1 211.064 54.6964 -5.55112e-17
558 1 60.3745 142.474 -5.55112e-17
559 2 106.148 91.6727 -5.55112e-17
560 2 57.504 89.2565 -5.55112e-17
561 2 110.399 181.828 -5.55112e-17
562 2 99.1468 65.7866 -5.55112e-17
563 1 72.9275 168.227 -5.55112e-17
564 2 103.164 78.7096 -5.55112e-17
565 2 31.5144 63.0912 -5.55112e-17
566 2 63.7152 60.7581 -5.55112e-17
567 1 95.0214 11.7066 -5.55112e-17
568 1 23.0335 77.4957 -5.55112e-17
569 2 141.573 194.324 -5.55112e-17
570 2 11.7684 21.4177 -5.55112e-17
571 2 5.29073 62.1773 -5.55112e-17
572 1 115.001 107.76 -5.55112e-17
573 2 38.1877 89.7094 -5.55112e-17
574 2 179.923 170.393 -5.55112e-17
575 1 196.645 206.441 -5.55112e-17
576 1 23.4353 69.5137 -5.55112e-17
577 1 127.774 74.4424 -5.55112e-17
578 1 183.46 115.292 -5.55112e-17
579 2 182.595 46.2266 -5.55112e-17
580 1 108.987 103.57 -5.55112e-17
581 1 91.4392 147.288 -5.55112e-17
582 2 125.423 100.91 -5.55112e-17
583 2 103.022 84.4111 -5.55112e-17
584 2 107.093 151.944 -5.55112e-17
585 1 181.809 103.15 -5.55112e-17
586 1 144.077 79.518 -5.55112e-17
587 1 158.45 111.826 -5.55112e-17
588 2 64.6176 108.736 -5.55112e-17
589 1 211.15 59.7757 -5.55112e-17
590 2 181.644 58.197 -5.55112e-17
591 2 178.837 16.3649 -5.55112e-17
592 1 203.369 129.066 -5.55112e-17
593 1 126.881 90.1357 -5.55112e-17
594 1 5.68656 70.2896 -5.55112e-17
595 1 28.8153 63.0578 -5.55112e-17
596 2 107.498 70.9707 -5.55112e-17
597 2 63.6785 105.496 -5.55112e-17
598 2 135.755 87.4803 -5.55112e-17
599 2 96.8081 166.404 -5.55112e-17
600 2 49.1139 98.7245 -5.55112e-17
601 1 145.854 107.504 -5.55112e-17
602 1 173.717 52.111 -5.55112e-17
603 2 216.649 159.879 -5.55112e-17
604 1 46.2693 179.483 -5.55112e-17
605 2 140.176 100.351 -5.55112e-17
606 2 150.222 98.9966 -5.55112e-17
607 2 47.485 169.456 -5.55112e-17
608 2 128.251 31.0486 -5.55112e-17
609 1 77.9899 89.436 -5.55112e-17
610 2 105.641 200.184 -5.55112e-17
611 1 1.21131 165.398 -5.55112e-17
612 1 206.906 117.66 -5.55112e-17
613 2 213.157 156.579 -5.55112e-17
614 1 202.936 30.7037 -5.55112e-17
615 1 152.365 103.854 -5.55112e-17
616 2 145.931 177.899 -5.55112e-17
617 1 168.931 0.997773 -5.55112e-17
618 1 136.967 216.577 -5.55112e-17
619 1 163.817 160.698 -5.55112e-17
620 2 43.1973 88.9818 -5.55112e-17
621 2 203.78 77.3001 -5.55112e-17
622 2 144.885 154.369 -5.55112e-17
623 2 108.687 147.622 -5.55112e-17
624 1 107.096 177.156 -5.55112e-17
625 2 208.85 79.7526 -5.55112e-17
626 1 211.397 190.048 -5.55112e-17
627 2 195.625 193.02 -5.55112e-17
628 1 117.035 156.598 -5.55112e-17
629 1 30.8403 40.9709 -5.55112e-17
630 2 133.396 214.175 -5.55112e-17
631 2 144.285 115.073 -5.55112e-17
632 2 209.303 19.6474 -5.55112e-17
633 2 60.8985 131.594 -5.55112e-17
634 2 191.725 67.9227 -5.55112e-17
635 2 80.5699 71.9699 -5.55112e-17
636 1 88.4742 131.336 -5.55112e-17
637 1 216.739 152.769 -5.55112e-17
638 1 116.755 68.9876 -5.55112e-17
639 2 200.842 65.0778 -5.55112e-17
640 2 149.481 77.8557 -5.55112e-17
641 1 200.042 96.5699 -5.55112e-17
642 2 161.889 35.0378 -5.55112e-17
643 1 165.429 57.574 -5.55112e-17
644 2 139.566 155.005 -5.55112e-17
645 2 5.96725 75.379 -5.55112e-17
646 1 170.543 142.911 -5.55112e-17
647 2 128.945 148.366 -5.55112e-17
648 2 191.08 211.621 -5.55112e-17
649 1 63.4787 145.318 -5.55112e-17
650 1 56.3294 153.087 -5.55112e-17
651 1 112.628 131.031 -5.55112e-17
652 2 8.93152 214.028 -5.55112e-17
653 2 195.735 45.2364 -5.55112e-17
654 1 208.171 164.53 -5.55112e-17
655 1 63.5912 47.7625 -5.55112e-17
656 1 199.455 10.3649 -5.55112e-17
657 1 124.872 120.115 -5.55112e-17
658 2 165.686 105.892 -5.55112e-17
659 2 101.633 137.867 -5.55112e-17
660 1 25.3727 11.9772 -5.55112e-17
661 2 15.9921 37.1067 -5.55112e-17
662 2 135.446 116.788 -5.55112e-17
663 1 163.592 113.242 -5.55112e-17
664 1 80.1295 138.765 -5.55112e-17
665 1 135.311 144.226 -5.55112e-17
666 1 203.489 185.11 -5.55112e-17
667 1 0.217749 116.835 -5.55112e-17
668 1 134.369 156.858 -5.55112e-17
669 1 107.058 161.263 -5.55112e-17
670 2 211.688 160.952 -5.55112e-17
671 1 3.90961 16.253 -5.55112e-17
672 1 193.186 141.684 -5.55112e-17
673 2 47.5041 85.0251 -5.55112e-17
674 2 182.807 205.729 -5.55112e-17
675 2 152.8 1.85301 -5.55112e-17
676 1 181.762 160.48 -5.55112e-17
677 2 53.3396 53.4231 -5.55112e-17
678 1 86.7442 113.83 -5.55112e-17
679 1 87.366 61.5356 -5.55112e-17
680 2 71.8237 14.0424 -5.55112e-17
681 1 5.52075 9.38081 -5.55112e-17
682 1 141.434 171.721 -5.55112e-17
683 2 96.4433 123.932 -5.55112e-17
684 1 23.2178 180.375 -5.55112e-17
685 1 84.1796 206.484 -5.55112e-17
686 1 142.742 159.829 -5.55112e-17
687 1 108.022 52.5928 -5.55112e-17
688 1 151.892 96.869 -5.55112e-17
689 2 9.11893 139.161 -5.55112e-17
690 1 48.5313 120.547 -5.55112e-17
691 2 65.4655 115.468 -5.55112e-17
692 2 179.59 178.203 -5.55112e-17
693 1 161.541 96.2358 -5.55112e-17
694 2 147.01 149.67 -5.55112e-17
695 2 188.348 36.4283 -5.55112e-17
696 2 31.6018 82.2393 -5.55112e-17
697 1 103.835 35.2817 -5.55112e-17
698 2 41.696 18.6777 -5.55112e-17
699 1 57.333 203.221 -5.55112e-17
700 2 17.9154 126.299 -5.55112e-17
701 2 29.9136 65.9539 -5.55112e-17
702 1 160.924 9.21567 -5.55112e-17
703 1 194.732 63.8997 -5.55112e-17
704 1 159.301 121.843 -5.55112e-17
705 1 43.5746 120.086 -5.55112e-17
706 1 75.2254 161.946 -5.55112e-17
707 1 182.244 66.7355 -5.55112e-17
708 2 195.254 101.466 -5.55112e-17
709 1 54.0733 160.215 -5.55112e-17
710 2 91.5844 16.5382 -5.55112e-17
711 2 218.484 141.263 -5.55112e-17
712 1 84.5608 213.967 -5.55112e-17
713 1 4.78881 152.258 -5.55112e-17
714 2 145.109 147.337 -5.55112e-17
715 2 133.094 86.7084 -5.55112e-17
716 1 87.5328 59.2049 -5.55112e-17
717 1 14.5279 61.3014 -5.55112e-17
718 2 78.7224 99.7755 -5.55112e-17
719 1 68.928 203.481 -5.55112e-17
720 2 52.419 197.42 -5.55112e-17
721 2 44.058 212.908 -5.55112e-17
722 2 65.2763 138.267 -5.55112e-17
723 2 15.48 165.425 -5.55112e-17
724 2 201.969 106.888 -5.55112e-17
725 2 21.7677 50.212 -5.55112e-17
726 2 177.548 123.3 -5.55112e-17
727 2 35.2462 109.606 -5.55112e-17
728 1 176.621 77.1564 -5.55112e-17
729 2 164.071 135.604 -5.55112e-17
730 2 174.965 94.4828 -5.55112e-17
731 1 9.93112 23.2975 -5.55112e-17
732 2 98.205 88.3665 -5.55112e-17
733 2 147.743 146.347 -5.55112e-17
734 2 59.1321 192.489 -5.55112e-17
735 2 149.237 71.6189 -5.55112e-17
736 1 181.953 177.1 -5.55112e-17
737 2 49.0241 39.8405 -5.55112e-17
738 2 71.5662 208.235 -5.55112e-17
739 2 185.607 131.438 -5.55112e-17
740 2 40.7428 115.341 -5.55112e-17
741 2 200.615 113.849 -5.55112e-17
742 1 71.8794 98.947 -5.55112e-17
743 2 78.6728 76.1494 -5.55112e-17
744 1 147.16 50.0127 -5.55112e-17
745 2 15.8813 75.4241 -5.55112e-17
746 1 218.361 121.257 -5.55112e-17
747 1 98.1713 163.761 -5.55112e-17
748 2 69.9974 198.487 -5.55112e-17
749 1 213.221 166.04 -5.55112e-17
750 1 139.491 147.927 -5.55112e-17
751 1 143.271 88.2736 -5.55112e-17
752 2 194.9 168.541 -5.55112e-17
753 1 37.1209 180.438 -5.55112e-17
754 2 65.8293 81.042 -5.55112e-17
755 1 6.63419 81.1011 -5.55112e-17
756 2 178.332 58.108 -5.55112e-17
757 1 110.426 15.2287 -5.55112e-17
758 2 99.8466 28.2278 -5.55112e-17
759 1 95.8392 134.033 -5.55112e-17
760 1 171.099 61.7128 -5.55112e-17
761 2 213.117 101.189 -5.55112e-17
762 1 178.184 106.237 -5.55112e-17
763 2 5.98729 157 -5.55112e-17
764 2 43.4441 188.28 -5.55112e-17
765 1 21.8108 160.148 -5.55112e-17
766 2 100.397 48.0302 -5.55112e-17
767 2 205.982 148.767 -5.55112e-17
768 2 72.0877 62.9879 -5.55112e-17
769 2 188.055 98.2101 -5.55112e-17
770 1 133.896 18.2446 -5.55112e-17
771 1 63.913 63.5601 -5.55112e-17
772 1 128.602 0.582529 -5.55112e-17
773 2 166.434 172.117 -5.55112e-17
774 1 87.1988 86.1677 -5.55112e-17
775 1 101.895 76.083 -5.55112e-17
776 2 192.612 103.211 -5.55112e-17
777 2 41.8604 80.0523 -5.55112e-17
778 1 83.304 13.2672 -5.55112e-17
779 1 47.5609 61.7921 -5.55112e-17
780 2 83.7126 50.5272 -5.55112e-17
781 1 26.0011 171.677 -5.55112e-17
782 2 122.928 170.695 -5.55112e-17
783 1 74.6995 62.0381 -5.55112e-17
784 2 96.3802 114.026 -5.55112e-17
785 1 204.497 82.5404 -5.55112e-17
786 1 40.9234 7.42632 -5.55112e-17
787 2 38.1874 208.295 -5.55112e-17
788 2 164.685 180.475 -5.55112e-17
789 2 18.5348 146.94 -5.55112e-17
790 2 77.335 8.24831 -5.55112e-17
791 2 186.7 53.7649 -5.55112e-17
792 1 212.717 132.261 -5.55112e-17
793 1 96.7649 172.289 -5.55112e-17
794 2 209.933 6.53983 -5.55112e-17
795 2 10.6827 191.773 -5.55112e-17
796 1 69.0251 215.579 -5.55112e-17
797 1 46.2418 32.5856 -5.55112e-17
798 1 213.732 56.0352 -5.55112e-17
799 2 105.746 156.066 -5.55112e-17
800 1 56.9465 37.4446 -5.55112e-17
801 2 68.4294 84.7924 -5.55112e-17
802 1 90.7652 217.179 -5.55112e-17
803 1 143.196 24.8493 -5.55112e-17
804 1 209.755 124.894 -5.55112e-17
805 2 183.754 117.686 -5.55112e-17
806 2 178.731 159.208 -5.55112e-17
807 2 208.154 29.6667 -5.55112e-17
808 2 76.3607 144.616 -5.55112e-17
809 1 175.864 63.2022 -5.55112e-17
810 2 24.0351 173.144 -5.55112e-17
811 2 180.033 55.7561 -5.55112e-17
812 1 121.794 185.201 -5.55112e-17
813 1 23.8054 93.3078 -5.55112e-17
814 1 3.36048 204.951 -5.55112e-17
815 1 146.142 31.7035 -5.55112e-17
816 1 206.897 51.3554 -5.55112e-17
817 2 62.9074 71.1073 -5.55112e-17
818 2 29.9205 122.653 -5.55112e-17
819 2 210.827 68.3267 -5.55112e-17
820 1 9.39675 59.1691 -5.55112e-17
821 1 64.8342 58.3214 -5.55112e-17
822 2 131.735 34.5718 -5.55112e-17
823 1 183.384 90.4895 -5.55112e-17
824 1 175.391 89.9039 -5.55112e-17
825 1 160.582 190.654 -5.55112e-17
826 2 178.381 81.8493 -5.55112e-17
827 2 102.486 26.9554 -5.55112e-17
828 1 50.7734 91.448 -5.55112e-17
829 2 127.29 92.6915 -5.55112e-17
830 1 3.47734 156.509 -5.55112e-17
831 2 183.636 217.793 -5.55112e-17
832 2 26.4732 52.536 -5.55112e-17
833 2 96.6011 42.3902 -5.55112e-17
834 1 70.544 164.23 -5.55112e-17
835 1 184.171 141.454 -5.55112e-17
836 1 153.389 69.3379 -5.55112e-17
837 2 168.268 92.2383 -5.55112e-17
838 2 92.1029 26.5545 -5.55112e-17
839 1 39.3828 32.247 -5.55112e-17
840 2 14.1233 117.388 -5.55112e-17
841 2 202.009 10.3369 -5.55112e-17
842 1 172.97 160.028 -5.55112e-17
843 1 205.384 30.0317 -5.55112e-17
844 2 8.59845 25.6501 -5.55112e-17
845 1 46.8631 150.789 -5.55112e-17
846 2 127.864 211.213 -5.55112e-17
847 1 88.8336 143.573 -5.55112e-17
848 2 112.471 8.60607 -5.55112e-17
849 1 25.2295 33.1877 -5.55112e-17
850 2 59.5912 67.6162 -5.55112e-17
851 2 216.465 30.7276 -5.55112e-17
852 1 137.047 182.848 -5.55112e-17
853 1 185.68 105.198 -5.55112e-17
854 2 104.064 145.171 -5.55112e-17
855 2 165.081 120.788 -5.55112e-17
856 1 77.1393 160.389 -5.55112e-17