ITEM: TIMESTEP
0
ITEM: NUMBER OF ATOMS
7200
ITEM: BOX BOUNDS xy xz yz pp pp pp
0.0000000000000000e+00 2.1900000000000000e+02 0.0000000000000000e+00
0.0000000000000000e+00 2.1900000000000000e+02 0.0000000000000000e+00
-3.6499999999999999e-01 3.6499999999999999e-01 0.0000000000000000e+00
ITEM: ATOMS id type x y z
1 1 182.431 14.369 -5.55112e-17
2 2 195.355 181.167 -5.55112e-17
3 2 140.928 186.786 -5.55112e-17
4 1 123.187 109.955 -5.55112e-17
5 1 96.8648 119.296 -5.55112e-17
6 1 102.297 23.1129 -5.55112e-17
7 2 157.386 126.116 -5.55112e-17
8 2 73.5762 21.1003 -5.55112e-17
9 1 20.6609 212.807 -5.55112e-17
10 2 53.2664 166.853 -5.55112e-17
11 2 211.834 100.286 -5.55112e-17
12 1 31.6384 189.371 -5.55112e-17
13 2 189.087 57.346 -5.55112e-17
14 1 54.0921 177.968 -5.55112e-17
15 2 192.43 0.808008 -5.55112e-17
16 2 216.137 90.4399 -5.55112e-17
17 1 71.2332 74.3292 -5.55112e-17
18 2 9.63742 172.914 -5.55112e-17
19 1 91.2499 129.322 -5.55112e-17
20 1 66.5097 17.6601 -5.55112e-17
21 1 153.744 10.3136 -5.55112e-17
22 2 27.7512 209.506 -5.55112e-17
23 2 41.3801 207.75 -5.55112e-17
24 2 215.319 103.767 -5.55112e-17
25 2 19.2834 194.337 -5.55112e-17
26 2 148.469 28.6729 -5.55112e-17
27 1 216.621 162.514 -5.55112e-17
28 2 53.3472 155.33 -5.55112e-17
29 2 83.7791 3.71285 -5.55112e-17
30 2 134.161 45.9055 -5.55112e-17
31 2 157.351 84.54 -5.55112e-17
32 1 43.0123 121.221 -5.55112e-17
33 2 146.138 88.1877 -5.55112e-17
34 2 14.49 100.234 -5.55112e-17
35 2 124.173 13.8761 -5.55112e-17
36 1 160.88 147.906 -5.55112e-17
37 1 134.135 184.459 -5.55112e-17
38 2 208.577 157.882 -5.55112e-17
39 1 10.3879 40.6768 -5.55112e-17
40 2 200.884 71.4235 -5.55112e-17
41 1 197.627 76.2082 -5.55112e-17
42 1 55.5525 58.9613 -5.55112e-17
43 1 209.908 132.622 -5.55112e-17
44 1 149.728 186.769 -5.55112e-17
45 2 158.576 62.1176 -5.55112e-17
46 1 125.324 191.925 -5.55112e-17
47 2 86.6892 74.9253 -5.55112e-17
48 2 149.359 126.625 -5.55112e-17
49 1 192.719 201.986 -5.55112e-17
50 2 29.1384 45.5095 -5.55112e-17
51 1 185.783 4.59367 -5.55112e-17
52 1 107.814 56.8036 -5.55112e-17
53 2 54.8043 193.155 -5.55112e-17
54 1 39.643 12.2951 -5.55112e-17
55 2 52.3886 142.108 -5.55112e-17
56 1 30.5295 132.575 -5.55112e-17
57 2 58.6053 134.279 -5.55112e-17
58 1 187.796 47.0593 -5.55112e-17
59 1 158.597 86.8789 -5.55112e-17
60 2 207.635 59.1879 -5.55112e-17
61 1 164.721 156.816 -5.55112e-17
62 1 108.97 110.951 -5.55112e-17
63 2 108.228 36.1918 -5.55112e-17
64 1 27.7187 19.7611 -5.55112e-17
65 2 156.452 150.125 -5.55112e-17
66 2 12.5576 155.13 -5.55112e-17
67 2 182.366 108.389 -5.55112e-17
68 1 137.422 83.3283 -5.55112e-17
69 2 107.441 166.275 -5.55112e-17
70 1 142.347 98.0755 -5.55112e-17
71 1 205.398 146.696 -5.55112e-17
72 2 44.2985 157.895 -5.55112e-17
73 2 192.04 184.706 -5.55112e-17
74 2 119.017 60.6807 -5.55112e-17
75 1 13.211 136.37 -5.55112e-17
76 2 137.998 208.216 -5.55112e-17
77 2 161.702 14.8521 -5.55112e-17
78 1 92.4621 210.453 -5.55112e-17
79 2 61.3738 75.8261 -5.55112e-17
80 1 51.4238 35.4208 -5.55112e-17
81 1 180.127 212.828 -5.55112e-17
82 1 182.78 39.2449 -5.55112e-17
83 1 72.9772 89.9563 -5.55112e-17
84 2 141.866 179.252 -5.55112e-17
85 2 149.809 143.306 -5.55112e-17
86 2 52.065 67.984 -5.55112e-17
87 2 35.5524 84.7928 -5.55112e-17
88 1 77.267 160.074 -5.55112e-17
89 2 199.449 106.284 -5.55112e-17
90 2 124.704 34.2277 -5.55112e-17
91 2 12.3541 181.011 -5.55112e-17
92 1 24.7948 214.432 -5.55112e-17
93 2 110.281 152.691 -5.55112e-17
94 2 114.144 143.728 -5.55112e-17
95 1 213.274 51.707 -5.55112e-17
96 2 28.3618 62.4913 -5.55112e-17
97 2 3.79423 212.016 -5.55112e-17
98 2 32.7051 187.087 -5.55112e-17
99 1 109.21 5.83937 -5.55112e-17
100 2 158.166 66.8182 -5.55112e-17
101 1 177.253 106.554 -5.55112e-17
102 1 65.6176 163.962 -5.55112e-17
103 2 203.872 99.2432 -5.55112e-17
104 2 103.329 70.9707 -5.55112e-17
105 1 159.112 52.1178 -5.55112e-17
106 1 184.458 54.7133 -5.55112e-17
107 1 213.901 105.908 -5.55112e-17
108 1 69.9092 209.828 -5.55112e-17
109 2 217.123 40.4118 -5.55112e-17
110 2 143.955 30.1988 -5.55112e-17
111 1 54.9004 92.7062 -5.55112e-17
112 2 8.62656 48.905 -5.55112e-17
113 1 135.201 9.29043 -5.55112e-17
114 1 93.4268 81.2148 -5.55112e-17
115 2 40.9621 73.5482 -5.55112e-17
116 2 184.158 16.681 -5.55112e-17
117 1 155.763 115.329 -5.55112e-17
118 1 85.0533 92.046 -5.55112e-17
119 2 98.2485 137.587 -5.55112e-17
120 2 202.879 60.7406 -5.55112e-17
121 1 204.472 141.604 -5.55112e-17
122 2 142.544 129.144 -5.55112e-17
123 2 4.06446 132.595 -5.55112e-17
124 1 162.993 204.043 -5.55112e-17
125 1 85.0749 191.938 -5.55112e-17
126 2 95.2956 83.0614 -5.55112e-17
127 2 208.829 110.144 -5.55112e-17
128 1 122.315 104.905 -5.55112e-17
129 1 144.431 193.041 -5.55112e-17
130 2 114.828 54.5968 -5.55112e-17
131 1 129.395 43.3911 -5.55112e-17
132 1 139.739 21.6037 -5.55112e-17
133 1 179.399 102.084 -5.55112e-17
134 1 78.2177 190.184 -5.55112e-17
135 2 179.773 65.6549 -5.55112e-17
136 1 186.188 118.675 -5.55112e-17
137 1 64.1062 18.6796 -5.55112e-17
138 2 149.934 156.243 -5.55112e-17
139 1 128.017 12.0918 -5.55112e-17
140 1 140.49 212.846 -5.55112e-17
141 1 52.1851 70.7448 -5.55112e-17
142 1 206.741 196.1 -5.55112e-17
143 1 25.3502 24.962 -5.55112e-17
144 1 49.3778 98.7706 -5.55112e-17
145 2 194.648 80.1462 -5.55112e-17
146 1 160.925 135.161 -5.55112e-17
147 2 15.0182 134.521 -5.55112e-17
148 1 23.666 133.236 -5.55112e-17
149 1 151.487 196.386 -5.55112e-17
150 2 61.9701 50.8397 -5.55112e-17
151 1 132.047 135.376 -5.55112e-17
152 1 167.103 155.482 -5.55112e-17
153 2 120.008 129.707 -5.55112e-17
154 1 192.716 46.8947 -5.55112e-17
155 2 205.674 41.9757 -5.55112e-17
156 2 104.603 186.423 -5.55112e-17
157 2 169.019 28.0724 -5.55112e-17
158 2 27.5362 8.28606 -5.55112e-17
159 2 11.506 159.11 -5.55112e-17
160 2 112.143 53.3936 -5.55112e-17
161 2 129.858 137.578 -5.55112e-17
162 1 17.0599 70.6971 -5.55112e-17
163 1 186.116 41.9848 -5.55112e-17
164 2 108.931 129.221 -5.55112e-17
165 1 50.1618 72.0598 -5.55112e-17
166 2 8.63171 204.792 -5.55112e-17
167 1 104.862 165.461 -5.55112e-17
168 1 210.124 102.158 -5.55112e-17
169 2 101.93 203.301 -5.55112e-17
170 1 65.7835 206.274 -5.55112e-17
171 1 137.882 92.2616 -5.55112e-17
172 1 198.164 201.192 -5.55112e-17
173 1 41.4467 201.944 -5.55112e-17
174 2 37.4234 173.235 -5.55112e-17
175 2 50.807 205.088 -5.55112e-17
176 1 118.206 150.391 -5.55112e-17
177 2 107.863 10.8908 -5.55112e-17
178 1 24.9499 8.04985 -5.55112e-17
179 2 112.414 191.383 -5.55112e-17
180 1 48.1825 73.3728 -5.55112e-17
181 1 15.9663 119.327 -5.55112e-17
182 1 101.116 94.33 -5.55112e-17
183 1 63.2095 168.675 -5.55112e-17
184 2 155.457 25.9932 -5.55112e-17
185 2 191.791 81.1079 -5.55112e-17
186 2 73.7344 206.284 -5.55112e-17
187 2 158.792 201.911 -5.55112e-17
188 2 57.1715 38.5677 -5.55112e-17
189 1 166.704 54.7597 -5.55112e-17
190 1 194.47 51.1678 -5.55112e-17
191 2 32.4747 99.3106 -5.55112e-17
192 2 92.4636 60.8988 -5.55112e-17
193 1 106.759 163.53 -5.55112e-17
194 1 26.2811 5.82108 -5.55112e-17
195 2 57.3294 120.174 -5.55112e-17
196 1 218.347 0.378417 -5.55112e-17
197 2 116.978 41.6736 -5.55112e-17
198 2 207.523 29.4579 -5.55112e-17
199 2 96.9085 171.322 -5.55112e-17
200 2 98.6161 34.5179 -5.55112e-17
201 2 99.3447 122.774 -5.55112e-17
202 1 51.5345 30.3535 -5.55112e-17
203 1 23.3239 57.1151 -5.55112e-17
204 2 45.2073 81.1922 -5.55112e-17
205 2 185.112 172.608 -5.55112e-17
206 2 172.423 133.333 -5.55112e-17
207 1 71.7111 187.619 -5.55112e-17
208 2 135.768 58.2111 -5.55112e-17
209 2 32.0333 142.284 -5.55112e-17
210 1 179.445 107.379 -5.55112e-17
211 1 203.716 35.1668 -5.55112e-17
212 1 209.521 84.9404 -5.55112e-17
213 1 127.958 123.329 -5.55112e-17
214 2 11.7139 11.5258 -5.55112e-17
215 1 2.38012 140.07 -5.55112e-17
216 1 51.041 43.745 -5.55112e-17
217 1 163.722 62.4794 -5.55112e-17
218 2 203.324 121.61 -5.55112e-17
219 2 137.385 189.178 -5.55112e-17
220 1 120.137 215.771 -5.55112e-17
221 2 83.1072 6.65006 -5.55112e-17
222 1 148.102 154.171 -5.55112e-17
223 1 45.5882 116.393 -5.55112e-17
224 2 145.403 72.1673 -5.55112e-17
225 2 169.803 166.784 -5.55112e-17
226 1 196.323 11.3663 -5.55112e-17
227 2 202.592 216.122 -5.55112e-17
228 2 116.603 46.4484 -5.55112e-17
229 1 43.424 15.2337 -5.55112e-17
230 1 6.45873 56.623 -5.55112e-17
231 2 135.885 160.729 -5.55112e-17
232 1 12.0787 207.799 -5.55112e-17
233 2 81.284 196.324 -5.55112e-17
234 1 2.20829 59.823 -5.55112e-17
235 1 150.471 106.829 -5.55112e-17
236 2 153.819 51.6476 -5.55112e-17
237 2 99.8129 201.137 -5.55112e-17
238 2 94.1751 138.911 -5.55112e-17
239 1 36.3734 213.515 -5.55112e-17
240 1 130.499 90.5235 -5.55112e-17
241 2 3.05541 124.026 -5.55112e-17
242 1 186.755 28.1841 -5.55112e-17
243 2 213.991 130.216 -5.55112e-17
244 2 33.9602 189.824 -5.55112e-17
245 1 159.587 30.3904 -5.55112e-17
246 2 90.7624 81.7444 -5.55112e-17
247 2 192.776 147.775 -5.55112e-17
248 1 37.3583 26.7201 -5.55112e-17
249 1 132.306 108.403 -5.55112e-17
250 1 134.154 27.2767 -5.55112e-17
251 2 105.678 46.5809 -5.55112e-17
252 1 111.28 155.241 -5.55112e-17
253 2 98.5405 99.5797 -5.55112e-17
254 2 178.111 206.056 -5.55112e-17
255 2 131.98 43.7593 -5.55112e-17
256 1 2.32142 180.513 -5.55112e-17
257 2 29.4263 191.006 -5.55112e-17
258 1 212.192 80.781 -5.55112e-17
259 2 161.711 142.488 -5.55112e-17
260 1 53.2928 190.577 -5.55112e-17
261 2 143.028 176.192 -5.55112e-17
262 2 186.874 105.188 -5.55112e-17
263 2 93.7356 170.415 -5.55112e-17
264 1 199.786 36.2685 -5.55112e-17
265 1 146.102 188.994 -5.55112e-17
266 1 91.6198 194.29 -5.55112e-17
267 2 107.975 15.8696 -5.55112e-17
268 1 1.77777 49.078 -5.55112e-17
269 2 9.10257 112.63 -5.55112e-17
270 2 175.927 147.341 -5.55112e-17
271 2 188.189 94.0681 -5.55112e-17
272 1 61.7244 26.4126 -5.55112e-17
273 1 71.7191 82.3258 -5.55112e-17
274 1 25.4611 192.698 -5.55112e-17
275 1 146.742 110.518 -5.55112e-17
276 1 205.305 74.0102 -5.55112e-17
277 1 105.273 31.1428 -5.55112e-17
278 2 59.2778 145.185 -5.55112e-17
279 2 161.004 87.1783 -5.55112e-17
280 1 116.844 212.741 -5.55112e-17
281 2 167.255 173.956 -5.55112e-17
282 2 76.0965 124.443 -5.55112e-17
283 2 218.404 151.232 -5.55112e-17
284 1 126.079 113.238 -5.55112e-17
285 1 72.4545 165.078 -5.55112e-17
286 2 29.5292 180.308 -5.55112e-17
287 2 99.3872 102.317 -5.55112e-17
288 1 108.943 119.946 -5.55112e-17
289 2 189.74 53.912 -5.55112e-17
290 1 95.7974 16.5331 -5.55112e-17
291 2 97.0331 188.209 -5.55112e-17
292 1 74.9174 131.791 -5.55112e-17
293 1 153.839 158.409 -5.55112e-17
294 1 29.0403 177.989 -5.55112e-17
295 2 45.4231 146.215 -5.55112e-17
296 1 193.531 171.127 -5.55112e-17
297 1 1.9277 18.6562 -5.55112e-17
298 2 29.4228 140.806 -5.55112e-17
299 1 179.354 53.4982 -5.55112e-17
300 2 189.767 197.073 -5.55112e-17
301 2 170.37 19.4497 -5.55112e-17
302 2 164.647 89.8019 -5.55112e-17
303 1 2.06034 151.794 -5.55112e-17
304 1 124.634 105.775 -5.55112e-17
305 1 91.7739 176.089 -5.55112e-17
306 2 84.8796 19.3396 -5.55112e-17
307 2 155.049 166.228 -5.55112e-17
308 2 142.217 22.6121 -5.55112e-17
309 1 69.596 70.6702 -5.55112e-17
310 1 186.169 184.772 -5.55112e-17
311 1 151.429 109.355 -5.55112e-17
312 2 132.948 11.6894 -5.55112e-17
313 2 159.633 20.9708 -5.55112e-17
314 1 198.02 61.2055 -5.55112e-17
315 2 56.2266 100.596 -5.55112e-17
316 1 103.207 45.2728 -5.55112e-17
317 1 131.73 176.498 -5.55112e-17
318 1 215.572 135.541 -5.55112e-17
319 2 72.8649 199.636 -5.55112e-17
320 1 215.877 47.8883 -5.55112e-17
321 1 54.4463 87.6109 -5.55112e-17
322 1 50.5324 148.726 -5.55112e-17
323 2 18.6503 138.831 -5.55112e-17
324 2 14.282 103.1 -5.55112e-17
325 2 215.932 14.2969 -5.55112e-17
326 1 184.222 2.56749 -5.55112e-17
327 1 31.6617 45.8016 -5.55112e-17
328 2 22.2841 198.369 -5.55112e-17
329 2 24.8022 80.9831 -5.55112e-17
330 2 149.31 37.957 -5.55112e-17
331 2 186.99 71.3893 -5.55112e-17
332 2 121.666 114.386 -5.55112e-17
333 2 27.1764 151.238 -5.55112e-17
334 2 215.512 18.9535 -5.55112e-17
335 1 166.547 213.242 -5.55112e-17
336 2 26.7853 141.934 -5.55112e-17
337 2 36.995 16.7189 -5.55112e-17
338 1 209.294 100.025 -5.55112e-17
339 2 14.302 152.531 -5.55112e-17
340 2 176.308 215.613 -5.55112e-17
341 2 107.077 67.5303 -5.55112e-17
342 2 175.565 179.024 -5.55112e-17
343 2 175.678 6.96299 -5.55112e-17
344 1 87.6509 108.363 -5.55112e-17
345 2 30.7984 213.88 -5.55112e-17
346 2 77.2682 71.4126 -5.55112e-17
347 1 148.778 99.0069 -5.55112e-17
348 1 180.972 5.60144 -5.55112e-17
349 2 173.111 70.2056 -5.55112e-17
350 2 75.2427 179.773 -5.55112e-17
351 1 170.05 134.538 -5.55112e-17
352 1 212.267 163.631 -5.55112e-17
353 2 140.862 131.493 -5.55112e-17
354 2 188.635 177.969 -5.55112e-17
355 1 215.461 157.182 -5.55112e-17
356 2 114.453 216.647 -5.55112e-17
357 1 127.909 191.891 -5.55112e-17
358 1 76.4279 33.948 -5.55112e-17
359 1 33.9887 143.985 -5.55112e-17
360 1 59.9389 17.3757 -5.55112e-17
361 2 199.618 65.0923 -5.55112e-17
362 2 173.132 95.1105 -5.55112e-17
363 1 78.8907 214.844 -5.55112e-17
364 2 0.516756 46.7045 -5.55112e-17
365 1 5.10163 164.596 -5.55112e-17
366 1 81.7986 172.688 -5.55112e-17
367 1 168.524 103.435 -5.55112e-17
368 1 20.0291 164.833 -5.55112e-17
369 2 81.2689 143.247 -5.55112e-17
370 1 6.38032 133.789 -5.55112e-17
371 2 68.6752 111.127 -5.55112e-17
372 1 88.0009 11.5687 -5.55112e-17
373 2 116.238 204.101 -5.55112e-17
374 2 176.852 102.226 -5.55112e-17
375 1 135.959 25.6678 -5.55112e-17
376 1 121.146 146.137 -5.55112e-17
377 2 93.1924 70.7924 -5.55112e-17
378 2 213.671 108.536 -5.55112e-17
379 2 168.736 184.345 -5.55112e-17
380 1 196.034 25.2766 -5.55112e-17
381 1 170.034 65.6415 -5.55112e-17
382 1 121.589 27.0144 -5.55112e-17
383 1 105.597 96.7453 -5.55112e-17
384 2 53.7051 101.79 -5.55112e-17
385 1 59.0294 142.806 -5.55112e-17
386 2 182.209 158.327 -5.55112e-17
387 1 34.6081 100.962 -5.55112e-17
388 1 142.713 163.6 -5.55112e-17
389 2 215.228 121.076 -5.55112e-17
390 1 113.405 62.6719 -5.55112e-17
391 1 202.055 218.544 -5.55112e-17
392 2 14.1464 97.2028 -5.55112e-17
393 2 186.777 175.109 -5.55112e-17
394 1 34.3963 204.443 -5.55112e-17
395 1 19.7194 215.162 -5.55112e-17
396 2 77.1219 86.9771 -5.55112e-17
397 1 75.302 40.9176 -5.55112e-17
398 2 163.17 109.76 -5.55112e-17
399 2 190.677 109.205 -5.55112e-17
400 2 122.948 71.1651 -5.55112e-17
401 2 85.392 186.154 -5.55112e-17
402 1 85.0618 38.9015 -5.55112e-17
403 1 58.7362 107.25 -5.55112e-17
404 2 118.272 6.97853 -5.55112e-17
405 1 55.7442 190.294 -5.55112e-17
406 2 4.10733 98.0665 -5.55112e-17
407 1 124.434 79.1702 -5.55112e-17
408 1 129.493 28.0109 -5.55112e-17
409 2 213.485 116.063 -5.55112e-17
410 2 70.1658 158.786 -5.55112e-17
411 1 136.976 96.6842 -5.55112e-17
412 1 165.713 6.17352 -5.55112e-17
413 1 33.0472 84.1976 -5.55112e-17
414 2 191.753 204.556 -5.55112e-17
415 1 101.513 120.929 -5.55112e-17
416 1 174.384 55.9324 -5.55112e-17
417 2 106.425 127.189 -5.55112e-17
418 2 34.0203 179.585 -5.55112e-17
419 2 196.104 92.0676 -5.55112e-17
420 2 116.437 49.4723 -5.55112e-17
421 1 74.6704 23.6676 -5.55112e-17
422 1 37.5021 59.6723 -5.55112e-17
423 2 114.579 123.846 -5.55112e-17
424 2 36.1608 22.1074 -5.55112e-17
425 2 119.282 147.974 -5.55112e-17
426 1 183.496 95.1905 -5.55112e-17
427 2 75.1722 61.1849 -5.55112e-17
428 1 28.6243 175.412 -5.55112e-17
429 2 132.024 147.618 -5.55112e-17
430 2 110.363 108.408 -5.55112e-17
431 1 12.893 9.15343 -5.55112e-17
432 2 173.511 4.90195 -5.55112e-17
433 1 176.709 198.837 -5.55112e-17
434 1 13.1115 203.555 -5.55112e-17
435 1 150.463 86.2384 -5.55112e-17
436 2 77.8591 199.533 -5.55112e-17
437 2 181.247 82.718 -5.55112e-17
438 2 191.85 169.264 -5.55112e-17
439 2 90.0117 9.97995 -5.55112e-17
440 2 209.015 94.416 -5.55112e-17
441 1 127.913 173.051 -5.55112e-17
442 1 39.7048 106.41 -5.55112e-17
443 2 79.892 80.118 -5.55112e-17
444 1 200.979 108.467 -5.55112e-17
445 1 175.794 139.543 -5.55112e-17
446 2 181.784 152.394 -5.55112e-17
447 2 37.5853 40.0122 -5.55112e-17
448 2 198.529 177.579 -5.55112e-17
449 1 42.8448 175.382 -5.55112e-17
450 1 10.1516 125.927 -5.55112e-17
451 1 49.9063 211.029 -5.55112e-17
452 2 210.477 60.8294 -5.55112e-17
453 1 215.949 150.48 -5.55112e-17
454 1 4.48402 68.8853 -5.55112e-17
455 2 72.2856 131.022 -5.55112e-17
456 1 84.7101 1.09439 -5.55112e-17
457 2 138.327 143.701 -5.55112e-17
458 2 155.521 136.686 -5.55112e-17
459 2 132.546 56.7354 -5.55112e-17
460 1 197.544 168.435 -5.55112e-17
461 1 107.968 124.614 -5.55112e-17
462 1 96.7171 182.928 -5.55112e-17
463 2 109.661 217.242 -5.55112e-17
464 2 19.1044 74.7834 -5.55112e-17
465 1 125.866 11.9251 -5.55112e-17
466 2 154.325 127.846 -5.55112e-17
467 2 64.8795 141.177 -5.55112e-17
468 2 124.127 125.097 -5.55112e-17
469 2 59.1837 70.9916 -5.55112e-17
470 2 207.617 154.786 -5.55112e-17
471 2 211.446 212.073 -5.55112e-17
472 2 111.35 35.6324 -5.55112e-17
473 2 196.963 215.378 -5.55112e-17
474 2 84.7013 146.29 -5.55112e-17
475 1 161.77 182.266 -5.55112e-17
476 2 179.857 38.791 -5.55112e-17
477 1 207.35 0.0432072 -5.55112e-17
478 1 45.0551 195.663 -5.55112e-17
479 2 217.508 197.711 -5.55112e-17
480 1 85.8213 58.0185 -5.55112e-17
481 1 2.18999 210.032 -5.55112e-17
482 2 158.703 178.195 -5.55112e-17
483 1 129.722 208.941 -5.55112e-17
484 1 64.7105 138.586 -5.55112e-17
485 2 12.7136 173.481 -5.55112e-17
486 1 127.873 72.6113 -5.55112e-17
487 1 17.7431 200.575 -5.55112e-17
488 1 51.0676 84.1592 -5.55112e-17
489 1 70.9315 112.511 -5.55112e-17
490 1 164.501 73.8216 -5.55112e-17
491 1 163.347 76.0928 -5.55112e-17
492 2 208.827 16.104 -5.55112e-17
493 1 92.9973 207.793 -5.55112e-17
494 2 80.6397 62.3407 -5.55112e-17
495 1 151.178 93.035 -5.55112e-17
496 1 49.5784 124.352 -5.55112e-17
497 1 137.405 109.79 -5.55112e-17
498 2 140.052 41.2683 -5.55112e-17
499 2 178.687 134.075 -5.55112e-17
500 2 62.5493 37.602 -5.55112e-17
501 2 13.4617 139.187 -5.55112e-17
502 2 199.126 133.034 -5.55112e-17
503 2 58.2403 63.4456 -5.55112e-17
504 2 100.902 46.922 -5.55112e-17
505 2 109.314 206.409 -5.55112e-17
506 1 206.574 7.06868 -5.55112e-17
507 2 45.2295 182.104 -5.55112e-17
508 1 141.333 53.922 -5.55112e-17
509 1 211.622 47.7641 -5.55112e-17
510 1 193.009 100.281 -5.55112e-17
511 2 106.915 181.339 -5.55112e-17
512 1 28.5998 41.5116 -5.55112e-17
513 2 90.2654 180.523 -5.55112e-17
514 2 19.8804 83.0405 -5.55112e-17
515 1 63.2469 98.3994 -5.55112e-17
516 2 99.9065 74.333 -5.55112e-17
517 1 31.3059 147.142 -5.55112e-17
518 2 10.3471 13.8814 -5.55112e-17
519 1 125.888 91.7037 -5.55112e-17
520 2 216.381 87.0735 -5.55112e-17
521 2 127.833 35.6245 -5.55112e-17
522 1 187.004 9.18982 -5.55112e-17
523 1 128.055 99.4365 -5.55112e-17
524 2 173.176 18.718 -5.55112e-17
525 2 194.56 57.9947 -5.55112e-17
526 2 103.534 17.5383 -5.55112e-17
527 1 171.42 27.0226 -5.55112e-17
528 1 211.822 202.947 -5.55112e-17
529 2 115.16 168.514 -5.55112e-17
530 2 29.6489 93.7154 -5.55112e-17
531 2 179.98 177.223 -5.55112e-17
532 1 80.7067 7.47502 -5.55112e-17
533 2 22.5961 158.121 -5.55112e-17
534 1 22.1896 168.597 -5.55112e-17
535 1 169.249 208.677 -5.55112e-17
536 2 17.5684 170.092 -5.55112e-17
537 1 141.517 29.4148 -5.55112e-17
538 1 67.6639 157.45 -5.55112e-17
539 2 79.3918 163.483 -5.55112e-17
540 1 34.4517 182.087 -5.55112e-17
541 1 109.152 126.76 -5.55112e-17
542 1 58.3969 127.397 -5.55112e-17
543 2 117.752 170.142 -5.55112e-17
544 1 217.018 211.997 -5.55112e-17
545 1 174.295 72.465 -5.55112e-17
546 2 186.322 11.6439 -5.55112e-17
547 1 27.5559 85.7833 -5.55112e-17
548 1 28.9701 6.19642 -5.55112e-17
549 2 34.0862 152.29 -5.55112e-17
550 2 165.681 191.766 -5.55112e-17
551 2 37.0856 12.1084 -5.55112e-17
552 1 28.0896 57.3353 -5.55112e-17
553 2 209.373 195.289 -5.55112e-17
554 2 142.81 34.4745 -5.55112e-17
555 2 178.337 139.573 -5.55112e-17
556 1 177.255 213.207 -5.55112e-17
557 1 213.132 54.1009 -5.55112e-17
558 1 56.927 144.309 -5.55112e-17
559 2 98.5421 94.377 -5.55112e-17
560 2 59.1178 89.1237 -5.55112e-17
561 2 106.781 170.991 -5.55112e-17
562 2 99.0847 61.5244 -5.55112e-17
563 1 72.6302 167.781 -5.55112e-17
564 2 105.424 86.5051 -5.55112e-17
565 2 25.4203 61.8174 -5.55112e-17
566 2 64.9671 60.1409 -5.55112e-17
567 1 92.1069 19.4503 -5.55112e-17
568 1 31.4589 73.6601 -5.55112e-17
569 2 141.877 191.69 -5.55112e-17
570 2 11.0285 23.1938 -5.55112e-17
571 2 6.93719 61.9895 -5.55112e-17
572 1 115.762 107.552 -5.55112e-17
573 2 40.1948 91.7415 -5.55112e-17
574 2 169.976 173.992 -5.55112e-17
575 1 195.176 208.239 -5.55112e-17
576 1 29.1754 81.8549 -5.55112e-17
577 1 128.344 75.5304 -5.55112e-17
578 1 189.365 114.725 -5.55112e-17
579 2 180.22 55.9198 -5.55112e-17
580 1 103.778 100.969 -5.55112e-17
581 1 91.2624 145.256 -5.55112e-17
582 2 126.06 101.126 -5.55112e-17
583 2 106.272 81.2593 -5.55112e-17
584 2 106.971 149.381 -5.55112e-17
585 1 179.519 97.1587 -5.55112e-17
586 1 146.045 80.2832 -5.55112e-17
587 1 159.057 111.615 -5.55112e-17
588 2 67.9403 107.979 -5.55112e-17
589 1 212.639 59.4123 -5.55112e-17
590 2 182.468 61.0865 -5.55112e-17
591 2 178.831 18.1397 -5.55112e-17
592 1 203.569 128.64 -5.55112e-17
593 1 127.859 89.9825 -5.55112e-17
594 1 6.84144 70.1568 -5.55112e-17
595 1 21.2109 66.5542 -5.55112e-17
596 2 109.554 66.0212 -5.55112e-17
597 2 64.9287 104.005 -5.55112e-17
598 2 136.718 87.6741 -5.55112e-17
599 2 94.819 162.997 -5.55112e-17
600 2 56.0688 103.907 -5.55112e-17
601 1 146.321 107.554 -5.55112e-17
602 1 162.238 54.6925 -5.55112e-17
603 2 215.977 159.716 -5.55112e-17
604 1 43.4753 180.225 -5.55112e-17
605 2 140.73 100.281 -5.55112e-17
606 2 151.463 99.7305 -5.55112e-17
607 2 46.6841 170.128 -5.55112e-17
608 2 127.736 29.9101 -5.55112e-17
609 1 79.7298 87.62 -5.55112e-17
610 2 99.229 189.959 -5.55112e-17
611 1 0.807966 165.761 -5.55112e-17
612 1 206.184 117.387 -5.55112e-17
613 2 212.705 156.751 -5.55112e-17
614 1 200.172 27.7868 -5.55112e-17
615 1 152.74 104.842 -5.55112e-17
616 2 148.221 176.374 -5.55112e-17
617 1 168.387 2.68852 -5.55112e-17
618 1 134.102 1.54197 -5.55112e-17
619 1 158.097 157.048 -5.55112e-17
620 2 44.0811 91.0619 -5.55112e-17
621 2 205.101 76.8291 -5.55112e-17
622 2 144.137 151.184 -5.55112e-17
623 2 108.554 145.196 -5.55112e-17
624 1 115.235 176.795 -5.55112e-17
625 2 210.002 79.318 -5.55112e-17
626 1 208.561 189.787 -5.55112e-17
627 2 197.845 193.491 -5.55112e-17
628 1 116.888 148.469 -5.55112e-17
629 1 31.8208 35.5296 -5.55112e-17
630 2 139.404 7.47029 -5.55112e-17
631 2 144.89 115.073 -5.55112e-17
632 2 209.285 20.6664 -5.55112e-17
633 2 62.4873 130.088 -5.55112e-17
634 2 192.382 67.6901 -5.55112e-17
635 2 79.4462 69.112 -5.55112e-17
636 1 86.8039 130.395 -5.55112e-17
637 1 216.402 153.117 -5.55112e-17
638 1 125.567 65.1389 -5.55112e-17
639 2 196.927 63.7348 -5.55112e-17
640 2 148.687 80.8304 -5.55112e-17
641 1 207.5 96.228 -5.55112e-17
642 2 161.513 32.3543 -5.55112e-17
643 1 159.922 59.8098 -5.55112e-17
644 2 139.482 157.491 -5.55112e-17
645 2 6.90911 75.3174 -5.55112e-17
646 1 171.027 141.52 -5.55112e-17
647 2 128.999 147.874 -5.55112e-17
648 2 189.073 212.569 -5.55112e-17
649 1 62.4519 139.806 -5.55112e-17
650 1 55.2056 153.589 -5.55112e-17
651 1 99.6721 129.676 -5.55112e-17
652 2 7.83616 214.287 -5.55112e-17
653 2 197.934 44.8644 -5.55112e-17
654 1 207.577 164.892 -5.55112e-17
655 1 58.9194 44.1233 -5.55112e-17
656 1 198.708 11.4457 -5.55112e-17
657 1 125.285 120.155 -5.55112e-17
658 2 167.144 108.154 -5.55112e-17
659 2 100.493 135.098 -5.55112e-17
660 1 24.5079 12.747 -5.55112e-17
661 2 14.1088 37.5916 -5.55112e-17
662 2 135.985 116.572 -5.55112e-17
663 1 164.252 112.28 -5.55112e-17
664 1 78.3718 135.063 -5.55112e-17
665 1 134.604 147.138 -5.55112e-17
666 1 203.27 179.329 -5.55112e-17
667 1 218.72 116.785 -5.55112e-17
668 1 133.962 158.831 -5.55112e-17
669 1 107.529 158.823 -5.55112e-17
670 2 211.519 161.3 -5.55112e-17
671 1 3.49433 16.6642 -5.55112e-17
672 1 190.466 148.998 -5.55112e-17
673 2 48.7438 85.7128 -5.55112e-17
674 2 180.926 205.973 -5.55112e-17
675 2 150.449 1.80861 -5.55112e-17
676 1 184.195 153.166 -5.55112e-17
677 2 53.7523 53.4764 -5.55112e-17
678 1 90.0499 106.859 -5.55112e-17
679 1 88.0638 61.0098 -5.55112e-17
680 2 66.759 3.97368 -5.55112e-17
681 1 4.83477 9.53723 -5.55112e-17
682 1 141.063 171.468 -5.55112e-17
683 2 94.7591 120.492 -5.55112e-17
684 1 22.6193 180.89 -5.55112e-17
685 1 84.2528 205.72 -5.55112e-17
686 1 141.824 156.331 -5.55112e-17
687 1 118.005 63.0266 -5.55112e-17
688 1 153.129 97.802 -5.55112e-17
689 2 12.3544 141.947 -5.55112e-17
690 1 48.9375 128.979 -5.55112e-17
691 2 69.0978 114.172 -5.55112e-17
692 2 170.255 181.613 -5.55112e-17
693 1 162.774 97.3151 -5.55112e-17
694 2 137.438 152.943 -5.55112e-17
695 2 181.159 29.3067 -5.55112e-17
696 2 24.7163 93.3428 -5.55112e-17
697 1 105.975 37.7414 -5.55112e-17
698 2 45.6327 16.6425 -5.55112e-17
699 1 59.8642 196.14 -5.55112e-17
700 2 17.2384 126.066 -5.55112e-17
701 2 28.8714 65.875 -5.55112e-17
702 1 152.852 2.99072 -5.55112e-17
703 1 197.58 66.5723 -5.55112e-17
704 1 155.108 125.191 -5.55112e-17
705 1 41.4556 119.333 -5.55112e-17
706 1 74.9148 161.147 -5.55112e-17
707 1 182.163 66.6698 -5.55112e-17
708 2 198.273 99.5038 -5.55112e-17
709 1 53.6527 160.775 -5.55112e-17
710 2 99.8104 13.1878 -5.55112e-17
711 2 0.535945 141.942 -5.55112e-17
712 1 84.3089 212.698 -5.55112e-17
713 1 4.36048 152.641 -5.55112e-17
714 2 146.789 143.574 -5.55112e-17
715 2 133.972 86.7932 -5.55112e-17
716 1 91.9616 55.3887 -5.55112e-17
717 1 16.0429 61.7042 -5.55112e-17
718 2 81.346 98.0689 -5.55112e-17
719 1 66.7136 198.092 -5.55112e-17
720 2 53.9404 204.202 -5.55112e-17
721 2 45.4581 211.518 -5.55112e-17
722 2 62.2121 137.324 -5.55112e-17
723 2 14.9857 165.974 -5.55112e-17
724 2 202.383 106.379 -5.55112e-17
725 2 28.0863 48.4179 -5.55112e-17
726 2 175.305 126.209 -5.55112e-17
727 2 29.1766 108.375 -5.55112e-17
728 1 176.64 77.4466 -5.55112e-17
729 2 158.205 135.826 -5.55112e-17
730 2 177.047 92.8162 -5.55112e-17
731 1 7.62072 23.3887 -5.55112e-17
732 2 106.576 91.9191 -5.55112e-17
733 2 145.122 138.759 -5.55112e-17
734 2 59.4035 201.856 -5.55112e-17
735 2 148.289 72.7989 -5.55112e-17
736 1 176.228 181.661 -5.55112e-17
737 2 48.2878 43.405 -5.55112e-17
738 2 71.1014 207.652 -5.55112e-17
739 2 185.776 128.872 -5.55112e-17
740 2 38.5342 114.4 -5.55112e-17
741 2 200.417 114.275 -5.55112e-17
742 1 74.2524 97.1086 -5.55112e-17
743 2 79.3544 73.9414 -5.55112e-17
744 1 147.012 48.9638 -5.55112e-17
745 2 13.8705 73.699 -5.55112e-17
746 1 217.819 121.484 -5.55112e-17
747 1 96.3649 161.042 -5.55112e-17
748 2 66.8393 195.333 -5.55112e-17
749 1 212.909 166.119 -5.55112e-17
750 1 139.922 145.691 -5.55112e-17
751 1 143.862 89.1212 -5.55112e-17
752 2 188.685 164.031 -5.55112e-17
753 1 36.3922 180.448 -5.55112e-17
754 2 66.8021 80.4275 -5.55112e-17
755 1 12.1969 80.5643 -5.55112e-17
756 2 176.916 52.4652 -5.55112e-17
757 1 116.156 21.6126 -5.55112e-17
758 2 96.6616 14.0198 -5.55112e-17
759 1 94.5507 131.832 -5.55112e-17
760 1 167.573 65.226 -5.55112e-17
761 2 215.182 95.8523 -5.55112e-17
762 1 167.7 114.912 -5.55112e-17
763 2 5.52478 157.799 -5.55112e-17
764 2 51.0212 189.006 -5.55112e-17
765 1 21.25 160.191 -5.55112e-17
766 2 107.085 51.6141 -5.55112e-17
767 2 207.104 142.287 -5.55112e-17
768 2 77.9691 61.895 -5.55112e-17
769 2 187.699 97.4047 -5.55112e-17
770 1 132.47 19.4329 -5.55112e-17
771 1 65.1681 62.8825 -5.55112e-17
772 1 131.17 6.02752 -5.55112e-17
773 2 165.384 165.361 -5.55112e-17
774 1 88.2157 83.1602 -5.55112e-17
775 1 106.555 78.6067 -5.55112e-17
776 2 191.973 104.132 -5.55112e-17
777 2 42.8187 86.0682 -5.55112e-17
778 1 78.9844 14.8605 -5.55112e-17
779 1 48.0137 61.8774 -5.55112e-17
780 2 84.7691 46.6627 -5.55112e-17
781 1 25.1178 172.206 -5.55112e-17
782 2 120.278 171.641 -5.55112e-17
783 1 77.3866 59.4401 -5.55112e-17
784 2 93.1195 112.992 -5.55112e-17
785 1 204.468 82.0039 -5.55112e-17
786 1 44.0263 0.456233 -5.55112e-17
787 2 38.3086 208.132 -5.55112e-17
788 2 164.115 173.756 -5.55112e-17
789 2 17.4492 147.087 -5.55112e-17
790 2 80.9123 4.47758 -5.55112e-17
791 2 179.864 45.7014 -5.55112e-17
792 1 212.371 132.461 -5.55112e-17
793 1 95.8983 168.802 -5.55112e-17
794 2 209.038 7.37923 -5.55112e-17
795 2 11.6985 183.955 -5.55112e-17
796 1 69.2226 215.25 -5.55112e-17
797 1 53.4118 31.5685 -5.55112e-17
798 1 215.024 55.6218 -5.55112e-17
799 2 106.04 153.996 -5.55112e-17
800 1 54.4797 38.987 -5.55112e-17
801 2 69.783 83.8812 -5.55112e-17
802 1 90.8118 216.107 -5.55112e-17
803 1 142.805 25.1819 -5.55112e-17
804 1 209.501 124.808 -5.55112e-17
805 2 184.91 111.269 -5.55112e-17
806 2 184.762 160.184 -5.55112e-17
807 2 211.85 30.9108 -5.55112e-17
808 2 78.2086 149.655 -5.55112e-17
809 1 175.004 68.183 -5.55112e-17
810 2 23.3398 173.91 -5.55112e-17
811 2 187.004 54.6966 -5.55112e-17
812 1 121.78 187.389 -5.55112e-17
813 1 11.6136 91.5183 -5.55112e-17
814 1 1.96474 205.411 -5.55112e-17
815 1 144.728 32.7601 -5.55112e-17
816 1 208.795 51.1426 -5.55112e-17
817 2 63.9944 70.4404 -5.55112e-17
818 2 29.6959 122.939 -5.55112e-17
819 2 212.446 67.7889 -5.55112e-17
820 1 11.2222 59.4158 -5.55112e-17
821 1 65.8049 57.4425 -5.55112e-17
822 2 130.176 33.4249 -5.55112e-17
823 1 185.368 88.2915 -5.55112e-17
824 1 176.554 90.2148 -5.55112e-17
825 1 147.083 197.159 -5.55112e-17
826 2 178.401 81.7207 -5.55112e-17
827 2 104.393 28.563 -5.55112e-17
828 1 52.6539 91.847 -5.55112e-17
829 2 128.423 92.3986 -5.55112e-17
830 1 3.17108 157.014 -5.55112e-17
831 2 182.469 0.209858 -5.55112e-17
832 2 27.8284 54.7159 -5.55112e-17
833 2 96.2048 32.2898 -5.55112e-17
834 1 70.0912 163.659 -5.55112e-17
835 1 185.858 141.051 -5.55112e-17
836 1 152.427 70.6832 -5.55112e-17
837 2 170.151 90.7179 -5.55112e-17
838 2 92.9332 17.048 -5.55112e-17
839 1 39.2644 28.275 -5.55112e-17
840 2 13.7435 117.109 -5.55112e-17
841 2 201.154 11.5344 -5.55112e-17
842 1 178.456 147.485 -5.55112e-17
843 1 204.626 29.843 -5.55112e-17
844 2 7.8127 28.2622 -5.55112e-17
845 1 46.1759 151.324 -5.55112e-17
846 2 129.969 213.765 -5.55112e-17
847 1 88.0789 142.123 -5.55112e-17
848 2 114.657 6.76625 -5.55112e-17
849 1 25.0788 32.1313 -5.55112e-17
850 2 60.8333 66.9859 -5.55112e-17
851 2 211.785 33.8119 -5.55112e-17
852 1 135.961 175.14 -5.55112e-17
853 1 189.193 103.71 -5.55112e-17
854 2 103.757 142.91 -5.55112e-17
855 2 166.831 117.467 -5.55112e-17