ITEM: TIMESTEP
0
ITEM: NUMBER OF ATOMS
7200
ITEM: BOX BOUNDS xy xz yz pp pp pp
0.0000000000000000e+00 2.1900000000000000e+02 0.0000000000000000e+00
0.0000000000000000e+00 2.1900000000000000e+02 0.0000000000000000e+00
-3.6499999999999999e-01 3.6499999999999999e-01 0.0000000000000000e+00
ITEM: ATOMS id type x y z
1 1 50.533 55.6184 -5.55112e-17
2 2 135.419 156.872 -5.55112e-17
3 2 173.719 139.554 -5.55112e-17
4 1 45.229 190.745 -5.55112e-17
5 1 186.522 53.0018 -5.55112e-17
6 1 58.8667 64.5678 -5.55112e-17
7 2 107.166 132.478 -5.55112e-17
8 2 19.9676 115.007 -5.55112e-17
9 1 162.372 28.0671 -5.55112e-17
10 2 122.741 204.851 -5.55112e-17
11 2 37.6238 115.876 -5.55112e-17
12 1 195.733 92.2697 -5.55112e-17
13 2 109.524 119.468 -5.55112e-17
14 1 163.862 38.9758 -5.55112e-17
15 2 70.6644 184.65 -5.55112e-17
16 2 171.897 155.568 -5.55112e-17
17 1 20.6926 28.1119 -5.55112e-17
18 2 192.771 56.4073 -5.55112e-17
19 1 115.511 76.5729 -5.55112e-17
20 1 124.645 48.8102 -5.55112e-17
21 1 94.7394 175.491 -5.55112e-17
22 2 113.995 24.378 -5.55112e-17
23 2 140.806 120.213 -5.55112e-17
24 2 48.377 156.902 -5.55112e-17
25 2 46.6371 7.34768 -5.55112e-17
26 2 165.254 88.3847 -5.55112e-17
27 1 146.064 34.3143 -5.55112e-17
28 2 19.0373 16.9218 -5.55112e-17
29 2 68.8677 20.2 -5.55112e-17
30 2 32.6536 187.736 -5.55112e-17
31 2 149.424 83.2362 -5.55112e-17
32 1 62.0055 129.931 -5.55112e-17
33 2 86.7848 61.5367 -5.55112e-17
34 2 141.834 93.8483 -5.55112e-17
35 2 133.084 67.173 -5.55112e-17
36 1 191.511 213.513 -5.55112e-17
37 1 212.074 99.5035 -5.55112e-17
38 2 131.408 6.73138 -5.55112e-17
39 1 75.0807 50.268 -5.55112e-17
40 2 141.78 177.301 -5.55112e-17
41 1 157.296 116.755 -5.55112e-17
42 1 98.3973 9.18604 -5.55112e-17
43 1 109.614 53.404 -5.55112e-17
44 1 87.2868 55.9057 -5.55112e-17
45 2 130.466 67.4712 -5.55112e-17
46 1 119.26 202.042 -5.55112e-17
47 2 4.19077 6.64289 -5.55112e-17
48 2 62.1017 190.459 -5.55112e-17
49 1 150.34 164.747 -5.55112e-17
50 2 135.348 201.673 -5.55112e-17
51 1 151.578 210.791 -5.55112e-17
52 1 72.8948 142.349 -5.55112e-17
53 2 207.872 69.5951 -5.55112e-17
54 1 174.001 133.927 -5.55112e-17
55 2 79.1616 65.0126 -5.55112e-17
56 1 73.6302 105.129 -5.55112e-17
57 2 160.83 173.374 -5.55112e-17
58 1 158.143 149.953 -5.55112e-17
59 1 156.758 184.968 -5.55112e-17
60 2 150.174 86.2443 -5.55112e-17
61 1 154.932 23.6094 -5.55112e-17
62 1 3.88397 50.1155 -5.55112e-17
63 2 92.9759 144.842 -5.55112e-17
64 1 19.1024 107.559 -5.55112e-17
65 2 177.165 23.5817 -5.55112e-17
66 2 169.931 214.672 -5.55112e-17
67 2 200.703 97.0358 -5.55112e-17
68 1 158.115 177.663 -5.55112e-17
69 2 87.0341 88.7828 -5.55112e-17
70 1 203.858 128.112 -5.55112e-17
71 1 193.748 105.244 -5.55112e-17
72 2 122.687 99.8564 -5.55112e-17
73 2 25.2448 202.88 -5.55112e-17
74 2 203.487 157.413 -5.55112e-17
75 1 126.684 4.09753 -5.55112e-17
76 2 204.962 116.178 -5.55112e-17
77 2 211.576 11.629 -5.55112e-17
78 1 31.7127 178.521 -5.55112e-17
79 2 160.217 214.921 -5.55112e-17
80 1 127.175 110.339 -5.55112e-17
81 1 154.342 54.6781 -5.55112e-17
82 1 7.06958 109.92 -5.55112e-17
83 1 120.842 57.9014 -5.55112e-17
84 2 135.81 7.11926 -5.55112e-17
85 2 15.5338 17.0132 -5.55112e-17
86 2 118.882 122.336 -5.55112e-17
87 2 143.651 8.50172 -5.55112e-17
88 1 58.129 19.9311 -5.55112e-17
89 2 39.8116 34.8843 -5.55112e-17
90 2 80.1098 118.937 -5.55112e-17
91 2 204.931 180.758 -5.55112e-17
92 1 182.662 104.093 -5.55112e-17
93 2 7.10232 5.54613 -5.55112e-17
94 2 165.042 92.2187 -5.55112e-17
95 1 67.8326 54.3034 -5.55112e-17
96 2 51.0112 76.4251 -5.55112e-17
97 2 6.80645 92.2055 -5.55112e-17
98 2 51.4938 1.87959 -5.55112e-17
99 1 6.55809 194.384 -5.55112e-17
100 2 210.532 73.682 -5.55112e-17
101 1 40.1754 70.3994 -5.55112e-17
102 1 91.7275 57.8892 -5.55112e-17
103 2 0.589656 149.033 -5.55112e-17
104 2 55.4498 87.3823 -5.55112e-17
105 1 216.886 101.56 -5.55112e-17
106 1 181.425 71.7541 -5.55112e-17
107 1 146.784 56.1825 -5.55112e-17
108 1 106.965 159.368 -5.55112e-17
109 2 170.756 208.267 -5.55112e-17
110 2 209.167 47.1372 -5.55112e-17
111 1 53.7107 90.1883 -5.55112e-17
112 2 92.4497 15.8249 -5.55112e-17
113 1 83.4189 212.836 -5.55112e-17
114 1 49.3525 57.5746 -5.55112e-17
115 2 117.095 112.254 -5.55112e-17
116 2 75.6954 206.433 -5.55112e-17
117 1 128.519 0.202412 -5.55112e-17
118 1 0.527914 63.5453 -5.55112e-17
119 2 195.513 77.262 -5.55112e-17
120 2 191.434 180.971 -5.55112e-17
121 1 173.488 42.9274 -5.55112e-17
122 2 171.822 114.3 -5.55112e-17
123 2 47.27 105.833 -5.55112e-17
124 1 146.322 37.0406 -5.55112e-17
125 1 131.52 77.1741 -5.55112e-17
126 2 4.74914 162.797 -5.55112e-17
127 2 187.843 191.589 -5.55112e-17
128 1 193.346 191.497 -5.55112e-17
129 1 196.058 13.5248 -5.55112e-17
130 2 103.263 75.8342 -5.55112e-17
131 1 180.631 117.634 -5.55112e-17
132 1 12.3469 1.50335 -5.55112e-17
133 1 97.3349 208.54 -5.55112e-17
134 1 11.2443 175.337 -5.55112e-17
135 2 156.449 56.065 -5.55112e-17
136 1 165.06 15.189 -5.55112e-17
137 1 22.9039 56.7074 -5.55112e-17
138 2 123.727 8.44783 -5.55112e-17
139 1 10.5097 15.2257 -5.55112e-17
140 1 97.3853 167.155 -5.55112e-17
141 1 85.4961 142.976 -5.55112e-17
142 1 128.332 112.69 -5.55112e-17
143 1 69.0583 217.227 -5.55112e-17
144 1 85.5084 212.422 -5.55112e-17
145 2 53.5901 183.027 -5.55112e-17
146 1 158.945 192.839 -5.55112e-17
147 2 158.549 109.786 -5.55112e-17
148 1 197.017 120.226 -5.55112e-17
149 1 173.743 16.8805 -5.55112e-17
150 2 126.207 69.6444 -5.55112e-17
151 1 3.81109 171.027 -5.55112e-17
152 1 23.7371 124.808 -5.55112e-17
153 2 216.099 190.26 -5.55112e-17
154 1 114.149 66.2059 -5.55112e-17
155 2 68.2532 179.901 -5.55112e-17
156 2 177.576 185.847 -5.55112e-17
157 2 24.7092 114.427 -5.55112e-17
158 2 21.7599 214.343 -5.55112e-17
159 2 186.218 90.061 -5.55112e-17
160 2 103.302 16.2506 -5.55112e-17
161 2 51.2348 96.6738 -5.55112e-17
162 1 49.8761 80.8364 -5.55112e-17
163 1 31.4091 176.275 -5.55112e-17
164 2 92.4659 102.625 -5.55112e-17
165 1 176.307 177.804 -5.55112e-17
166 2 174.064 47.7804 -5.55112e-17
167 1 66.9237 82.1746 -5.55112e-17
168 1 50.0991 178.95 -5.55112e-17
169 2 135.881 190.765 -5.55112e-17
170 1 190.51 148.554 -5.55112e-17
171 1 76.9741 101.048 -5.55112e-17
172 1 133.025 157.333 -5.55112e-17
173 1 50.243 198.072 -5.55112e-17
174 2 122.32 168.357 -5.55112e-17
175 2 193.557 72.32 -5.55112e-17
176 1 44.0525 92.7414 -5.55112e-17
177 2 89.4008 168.319 -5.55112e-17
178 1 76.5064 94.3518 -5.55112e-17
179 2 25.3385 81.3532 -5.55112e-17
180 1 148.591 186.717 -5.55112e-17
181 1 155.11 44.3013 -5.55112e-17
182 1 46.2602 86.0067 -5.55112e-17
183 1 77.9194 178.049 -5.55112e-17
184 2 120.451 178.852 -5.55112e-17
185 2 44.2095 1.84326 -5.55112e-17
186 2 82.6624 11.5581 -5.55112e-17
187 2 193.047 9.94403 -5.55112e-17
188 2 207.921 202.373 -5.55112e-17
189 1 152.958 19.565 -5.55112e-17
190 1 80.6009 151.778 -5.55112e-17
191 2 140.65 217.866 -5.55112e-17
192 2 156.5 40.5422 -5.55112e-17
193 1 3.3438 77.1335 -5.55112e-17
194 1 3.7074 40.5587 -5.55112e-17
195 2 113.934 151.005 -5.55112e-17
196 1 122.198 111.384 -5.55112e-17
197 2 89.8633 159.993 -5.55112e-17
198 2 127.899 126.411 -5.55112e-17
199 2 39.3177 4.79942 -5.55112e-17
200 2 189.858 199.746 -5.55112e-17
201 2 81.8047 55.5099 -5.55112e-17
202 1 31.469 39.7859 -5.55112e-17
203 1 91.8586 156.374 -5.55112e-17
204 2 197.46 179.837 -5.55112e-17
205 2 98.7488 200.062 -5.55112e-17
206 2 93.0907 105.906 -5.55112e-17
207 1 25.0356 116.883 -5.55112e-17
208 2 88.669 6.02953 -5.55112e-17
209 2 122.297 18.2732 -5.55112e-17
210 1 157.476 134.857 -5.55112e-17
211 1 183.259 46.7039 -5.55112e-17
212 1 216.812 9.26319 -5.55112e-17
213 1 167.645 87.575 -5.55112e-17
214 2 23.5097 153.521 -5.55112e-17
215 1 148.91 40.4824 -5.55112e-17
216 1 104.623 198.737 -5.55112e-17
217 1 90.8958 212.136 -5.55112e-17
218 2 79.076 3.5152 -5.55112e-17
219 2 140.169 91.4495 -5.55112e-17
220 1 55.7339 95.0048 -5.55112e-17
221 2 26.3173 139.788 -5.55112e-17
222 1 154.348 158.596 -5.55112e-17
223 1 90.0085 72.4786 -5.55112e-17
224 2 178.742 144.976 -5.55112e-17
225 2 99.2421 150.27 -5.55112e-17
226 1 17.277 183.327 -5.55112e-17
227 2 96.2849 106.534 -5.55112e-17
228 2 203.118 25.3729 -5.55112e-17
229 1 130.357 93.8265 -5.55112e-17
230 1 161.767 138.941 -5.55112e-17
231 2 67.1732 103.725 -5.55112e-17
232 1 70.6713 108.391 -5.55112e-17
233 2 28.3613 82.2072 -5.55112e-17
234 1 168.9 0.613854 -5.55112e-17
235 1 125.718 180.752 -5.55112e-17
236 2 93.8985 170.532 -5.55112e-17
237 2 182.8 60.8646 -5.55112e-17
238 2 105.6 181.757 -5.55112e-17
239 1 68.8222 151.903 -5.55112e-17
240 1 140.438 206.248 -5.55112e-17
241 2 136.084 17.5706 -5.55112e-17
242 1 43.8023 118.935 -5.55112e-17
243 2 42.0665 106.467 -5.55112e-17
244 2 27.3826 173.017 -5.55112e-17
245 1 130.063 21.4918 -5.55112e-17
246 2 107.074 147.286 -5.55112e-17
247 2 77.8894 15.0224 -5.55112e-17
248 1 171.189 196.84 -5.55112e-17
249 1 155.277 156.338 -5.55112e-17
250 1 185.505 139.47 -5.55112e-17
251 2 145.908 218.176 -5.55112e-17
252 1 200.165 101.968 -5.55112e-17
253 2 151.23 186.795 -5.55112e-17
254 2 88.0623 29.629 -5.55112e-17
255 2 34.1582 57.8113 -5.55112e-17
256 1 152.366 153.808 -5.55112e-17
257 2 70.6978 38.4722 -5.55112e-17
258 1 104.657 184.294 -5.55112e-17
259 2 51.909 133.403 -5.55112e-17
260 1 110.492 213.316 -5.55112e-17
261 2 95.6157 190.055 -5.55112e-17
262 2 168.57 189.453 -5.55112e-17
263 2 155.538 66.8438 -5.55112e-17
264 1 138.341 15.9401 -5.55112e-17
265 1 92.8396 119.022 -5.55112e-17
266 1 150.083 217.563 -5.55112e-17
267 2 150.556 20.8135 -5.55112e-17
268 1 193.989 74.9383 -5.55112e-17
269 2 99.0397 131.228 -5.55112e-17
270 2 199.611 34.6783 -5.55112e-17
271 2 76.785 6.08549 -5.55112e-17
272 1 128.896 48.1284 -5.55112e-17
273 1 163.065 163.475 -5.55112e-17
274 1 100.203 48.7663 -5.55112e-17
275 1 107.716 41.5533 -5.55112e-17
276 1 176.098 156.46 -5.55112e-17
277 1 88.2487 76.5189 -5.55112e-17
278 2 23.7237 94.1955 -5.55112e-17
279 2 55.5636 149.177 -5.55112e-17
280 1 123.17 32.912 -5.55112e-17
281 2 124.62 128.26 -5.55112e-17
282 2 103.174 110.729 -5.55112e-17
283 2 112.037 160.352 -5.55112e-17
284 1 56.0545 31.8588 -5.55112e-17
285 1 92.4869 113.75 -5.55112e-17
286 2 73.3308 124.587 -5.55112e-17
287 2 17.7379 159.683 -5.55112e-17
288 1 215.803 192.871 -5.55112e-17
289 2 102.325 32.874 -5.55112e-17
290 1 204.157 133.6 -5.55112e-17
291 2 213.951 59.097 -5.55112e-17
292 1 170.014 4.92886 -5.55112e-17
293 1 41.2634 118.512 -5.55112e-17
294 1 28.0701 8.4741 -5.55112e-17
295 2 25.8722 163.765 -5.55112e-17
296 1 113.203 173.148 -5.55112e-17
297 1 2.306 200.728 -5.55112e-17
298 2 61.2153 77.646 -5.55112e-17
299 1 137.242 149.084 -5.55112e-17
300 2 131.416 189.22 -5.55112e-17
301 2 204.487 47.3243 -5.55112e-17
302 2 197.575 117.673 -5.55112e-17
303 1 33.1642 190.244 -5.55112e-17
304 1 162.753 133.769 -5.55112e-17
305 1 125.308 175.914 -5.55112e-17
306 2 50.824 215.107 -5.55112e-17
307 2 55.3687 106.314 -5.55112e-17
308 2 16.4265 121.612 -5.55112e-17
309 1 36.5829 0.221842 -5.55112e-17
310 1 159.334 46.7713 -5.55112e-17
311 1 66.7519 12.5557 -5.55112e-17
312 2 149.11 189.23 -5.55112e-17
313 2 141.321 212.773 -5.55112e-17
314 1 96.4521 113.61 -5.55112e-17
315 2 22.2687 209.221 -5.55112e-17
316 1 43.2587 83.2906 -5.55112e-17
317 1 152.905 27.591 -5.55112e-17
318 1 186.506 85.1082 -5.55112e-17
319 2 161.995 168.048 -5.55112e-17
320 1 192.988 23.0243 -5.55112e-17
321 1 81.2318 101.791 -5.55112e-17
322 1 126.06 161.697 -5.55112e-17
323 2 118.729 139.055 -5.55112e-17
324 2 114.776 46.735 -5.55112e-17
325 2 58.6538 87.9396 -5.55112e-17
326 1 18.7175 156.92 -5.55112e-17
327 1 110.725 125.241 -5.55112e-17
328 2 64.6969 180.561 -5.55112e-17
329 2 190.031 125.307 -5.55112e-17
330 2 22.113 217.406 -5.55112e-17
331 2 66.4726 131.776 -5.55112e-17
332 2 95.8094 18.8259 -5.55112e-17
333 2 69.6387 7.02387 -5.55112e-17
334 2 157.506 2.88589 -5.55112e-17
335 1 213.097 156.605 -5.55112e-17
336 2 111.264 150.213 -5.55112e-17
337 2 185.758 123.86 -5.55112e-17
338 1 7.92134 15.017 -5.55112e-17
339 2 134.545 125.37 -5.55112e-17
340 2 42.703 191.424 -5.55112e-17
341 2 55.5261 197.169 -5.55112e-17
342 2 30.4567 63.8091 -5.55112e-17
343 2 181.617 68.8967 -5.55112e-17
344 1 91.0589 7.48589 -5.55112e-17
345 2 110.266 169.642 -5.55112e-17
346 2 93.3093 83.4019 -5.55112e-17
347 1 67.6377 2.89583 -5.55112e-17
348 1 145.095 1.62986 -5.55112e-17
349 2 93.0207 25.2312 -5.55112e-17
350 2 76.66 209.681 -5.55112e-17
351 1 15.2138 216.845 -5.55112e-17
352 1 112.455 152.901 -5.55112e-17
353 2 157.354 132.036 -5.55112e-17
354 2 66.1692 46.6604 -5.55112e-17
355 1 118.516 39.4009 -5.55112e-17
356 2 56.2576 90.0744 -5.55112e-17
357 1 103.393 78.7689 -5.55112e-17
358 1 44.8384 116.742 -5.55112e-17
359 1 144.058 138.067 -5.55112e-17
360 1 30.2119 115.792 -5.55112e-17
361 2 129.339 210.01 -5.55112e-17
362 2 63.1827 108.193 -5.55112e-17
363 1 170.939 108.805 -5.55112e-17
364 2 192.354 216.021 -5.55112e-17
365 1 9.74857 99.0546 -5.55112e-17
366 1 183.595 145.123 -5.55112e-17
367 1 208.077 62.5559 -5.55112e-17
368 1 109.058 130.687 -5.55112e-17
369 2 91.4745 65.3847 -5.55112e-17
370 1 88.9996 140.894 -5.55112e-17
371 2 16.0577 157.001 -5.55112e-17
372 1 78.8077 60.4176 -5.55112e-17
373 2 170.975 120.506 -5.55112e-17
374 2 200.482 141.398 -5.55112e-17
375 1 183.972 152.756 -5.55112e-17
376 1 146.453 99.2593 -5.55112e-17
377 2 211.422 119.088 -5.55112e-17
378 2 201.735 88.9167 -5.55112e-17
379 2 147.403 207.75 -5.55112e-17
380 1 199.094 95.0536 -5.55112e-17
381 1 128.215 41.1045 -5.55112e-17
382 1 104.524 151.642 -5.55112e-17
383 1 193.103 218.679 -5.55112e-17
384 2 202.855 14.8901 -5.55112e-17
385 1 71.8118 52.9655 -5.55112e-17
386 2 10.3566 83.3277 -5.55112e-17
387 1 166.623 19.6381 -5.55112e-17
388 1 72.3679 110.148 -5.55112e-17
389 2 155.411 204.36 -5.55112e-17
390 1 57.0011 39.9838 -5.55112e-17
391 1 151.225 213.398 -5.55112e-17
392 2 22.3426 116.93 -5.55112e-17
393 2 76.4038 197.245 -5.55112e-17
394 1 156.781 181.853 -5.55112e-17
395 1 204.77 77.3793 -5.55112e-17
396 2 156.798 114.249 -5.55112e-17
397 1 66.8414 216.768 -5.55112e-17
398 2 187.674 134.379 -5.55112e-17
399 2 16.8702 66.7618 -5.55112e-17
400 2 143.926 196.598 -5.55112e-17
401 2 191.211 29.3645 -5.55112e-17
402 1 50.2924 37.5798 -5.55112e-17
403 1 0.0810205 4.22377 -5.55112e-17
404 2 4.36146 207.654 -5.55112e-17
405 1 143.812 151.679 -5.55112e-17
406 2 146.144 23.7901 -5.55112e-17
407 1 157.267 206.041 -5.55112e-17
408 1 198.434 140.052 -5.55112e-17
409 2 23.2347 62.0777 -5.55112e-17
410 2 206.333 185.78 -5.55112e-17
411 1 99.4703 6.72994 -5.55112e-17
412 1 210.055 68.0676 -5.55112e-17
413 1 218.123 192.026 -5.55112e-17
414 2 42.8759 53.3769 -5.55112e-17
415 1 160.263 67.7934 -5.55112e-17
416 1 20.3353 184.487 -5.55112e-17
417 2 184.313 69.735 -5.55112e-17
418 2 215.246 29.81 -5.55112e-17
419 2 43.2332 109.204 -5.55112e-17
420 2 202.928 102.992 -5.55112e-17
421 1 185.75 177.954 -5.55112e-17
422 1 141.235 6.77782 -5.55112e-17
423 2 14.938 50.7061 -5.55112e-17
424 2 161.695 54.621 -5.55112e-17
425 2 25.1937 102.713 -5.55112e-17
426 1 151.114 11.7055 -5.55112e-17
427 2 176.941 126.273 -5.55112e-17
428 1 40.7118 176.443 -5.55112e-17
429 2 87.6368 202.992 -5.55112e-17
430 2 92.1003 214.49 -5.55112e-17
431 1 212.407 79.5067 -5.55112e-17
432 2 3.42298 18.4207 -5.55112e-17
433 1 10.0474 216.415 -5.55112e-17
434 1 94.7115 0.0850796 -5.55112e-17
435 1 51.8765 122.385 -5.55112e-17
436 2 181.053 85.2279 -5.55112e-17
437 2 169.993 10.36 -5.55112e-17
438 2 80.1563 125.9 -5.55112e-17
439 2 123.561 90.4573 -5.55112e-17
440 2 113.062 184.065 -5.55112e-17
441 1 66.2943 63.8506 -5.55112e-17
442 1 198.084 194.168 -5.55112e-17
443 2 126.74 50.0374 -5.55112e-17
444 1 185.527 214.01 -5.55112e-17
445 1 211.679 196.286 -5.55112e-17
446 2 12.641 217.842 -5.55112e-17
447 2 153.176 10.4098 -5.55112e-17
448 2 32.8226 91.9071 -5.55112e-17
449 1 158.704 60.3956 -5.55112e-17
450 1 63.8295 72.51 -5.55112e-17
451 1 24.7255 173.565 -5.55112e-17
452 2 125.866 66.0503 -5.55112e-17
453 1 151.492 150.091 -5.55112e-17
454 1 217.944 138.818 -5.55112e-17
455 2 109.854 128.182 -5.55112e-17
456 1 159.328 156.889 -5.55112e-17
457 2 65.4192 101.135 -5.55112e-17
458 2 29.3979 120.92 -5.55112e-17
459 2 24.5146 127.893 -5.55112e-17
460 1 23.0217 168.516 -5.55112e-17
461 1 78.2788 151.186 -5.55112e-17
462 1 173.046 65.5089 -5.55112e-17
463 2 167.023 205.391 -5.55112e-17
464 2 26.6058 24.0233 -5.55112e-17
465 1 211.519 184.064 -5.55112e-17
466 2 44.8184 147.271 -5.55112e-17
467 2 14.407 137.092 -5.55112e-17
468 2 22.8552 131.762 -5.55112e-17
469 2 35.7941 186.059 -5.55112e-17
470 2 0.145911 73.7075 -5.55112e-17
471 2 178.168 109.661 -5.55112e-17
472 2 198.436 197.265 -5.55112e-17
473 2 113.843 158.068 -5.55112e-17
474 2 33.5327 67.9916 -5.55112e-17
475 1 192.704 155.196 -5.55112e-17
476 2 47.938 205.989 -5.55112e-17
477 1 35.9967 68.9167 -5.55112e-17
478 1 12.1167 138.313 -5.55112e-17
479 2 113.753 209.468 -5.55112e-17
480 1 103.129 119.856 -5.55112e-17
481 1 178.273 112.493 -5.55112e-17
482 2 154.614 104.483 -5.55112e-17
483 1 150.829 215.549 -5.55112e-17
484 1 18.8702 92.3313 -5.55112e-17
485 2 162.47 66.2773 -5.55112e-17
486 1 91.7384 77.9391 -5.55112e-17
487 1 34.0247 106.051 -5.55112e-17
488 1 187.089 194.229 -5.55112e-17
489 1 11.3632 143.583 -5.55112e-17
490 1 96.6316 192.812 -5.55112e-17
491 1 173.182 159.865 -5.55112e-17
492 2 113.597 140.713 -5.55112e-17
493 1 31.263 134.45 -5.55112e-17
494 2 152.37 3.12559 -5.55112e-17
495 1 5.72318 25.0985 -5.55112e-17
496 1 85.3697 16.1744 -5.55112e-17
497 1 69.7322 197.724 -5.55112e-17
498 2 61.6143 88.6373 -5.55112e-17
499 2 210.414 114.578 -5.55112e-17
500 2 112.098 98.8776 -5.55112e-17
501 2 48.2999 153.664 -5.55112e-17
502 2 73.9253 131.766 -5.55112e-17
503 2 77.492 136.456 -5.55112e-17
504 2 76.9527 200.542 -5.55112e-17
505 2 197.761 188.711 -5.55112e-17
506 1 90.5394 144.824 -5.55112e-17
507 2 118.28 58.1204 -5.55112e-17
508 1 196.408 167.774 -5.55112e-17
509 1 105.014 131.196 -5.55112e-17
510 1 125.852 15.122 -5.55112e-17
511 2 124.987 76.2171 -5.55112e-17
512 1 66.4698 177.917 -5.55112e-17
513 2 27.8002 130.776 -5.55112e-17
514 2 57.9277 153.993 -5.55112e-17
515 1 130.572 28.1563 -5.55112e-17
516 2 89.4314 101.833 -5.55112e-17
517 1 137.087 113.717 -5.55112e-17
518 2 82.43 68.6644 -5.55112e-17
519 1 41.0409 151.214 -5.55112e-17
520 2 100.755 191.074 -5.55112e-17
521 2 70.1306 135.182 -5.55112e-17
522 1 116.23 114.646 -5.55112e-17
523 1 62.362 58.7514 -5.55112e-17
524 2 198.435 206.935 -5.55112e-17
525 2 145 90.2706 -5.55112e-17
526 2 125.022 125.457 -5.55112e-17
527 1 75.7281 177.088 -5.55112e-17
528 1 44.7646 139.816 -5.55112e-17
529 2 53.9536 135.653 -5.55112e-17
530 2 212.39 82.7907 -5.55112e-17
531 2 146.635 125.189 -5.55112e-17
532 1 12.8778 177.592 -5.55112e-17
533 2 175.091 190.783 -5.55112e-17
534 1 188.134 184.439 -5.55112e-17
535 1 137.134 62.7372 -5.55112e-17
536 2 11.9795 193.06 -5.55112e-17
537 1 23.9439 29.5106 -5.55112e-17
538 1 134.798 39.1974 -5.55112e-17
539 2 27.9032 142.438 -5.55112e-17
540 1 119.738 161.015 -5.55112e-17
541 1 126.116 89.508 -5.55112e-17
542 1 165.948 57.2703 -5.55112e-17
543 2 70.9293 47.3329 -5.55112e-17
544 1 192.993 114.458 -5.55112e-17
545 1 9.41081 62.4416 -5.55112e-17
546 2 97.5113 42.3678 -5.55112e-17
547 1 206.024 87.1909 -5.55112e-17
548 1 202.203 84.5389 -5.55112e-17
549 2 103.718 58.8454 -5.55112e-17
550 2 51.4048 190.179 -5.55112e-17
551 2 88.6972 64.1998 -5.55112e-17
552 1 5.07858 218.725 -5.55112e-17
553 2 26.5106 30.5029 -5.55112e-17
554 2 217.05 146.993 -5.55112e-17
555 2 79.9226 94.6324 -5.55112e-17
556 1 214.482 125.006 -5.55112e-17
557 1 168.782 43.479 -5.55112e-17
558 1 89.6736 177.744 -5.55112e-17
559 2 19.1786 10.9124 -5.55112e-17
560 2 70.1067 15.9707 -5.55112e-17
561 2 160.853 161.508 -5.55112e-17
562 2 139.51 100.806 -5.55112e-17
563 1 101.543 148.652 -5.55112e-17
564 2 159.439 179.89 -5.55112e-17
565 2 89.8035 67.8472 -5.55112e-17
566 2 23.0854 100.497 -5.55112e-17
567 1 180.311 162.434 -5.55112e-17
568 1 54.4814 163.571 -5.55112e-17
569 2 12.9374 5.90863 -5.55112e-17
570 2 37.3398 23.9294 -5.55112e-17
571 2 86.8233 80.452 -5.55112e-17
572 1 103.02 90.5915 -5.55112e-17
573 2 34.01 13.4149 -5.55112e-17
574 2 161.745 125.688 -5.55112e-17
575 1 108.191 135.319 -5.55112e-17
576 1 148.209 64.6313 -5.55112e-17
577 1 121.638 207.225 -5.55112e-17
578 1 139.039 10.7136 -5.55112e-17
579 2 58.2137 166.356 -5.55112e-17
580 1 192.91 185.932 -5.55112e-17
581 1 148.724 123.544 -5.55112e-17
582 2 27.5981 45.3051 -5.55112e-17
583 2 118.246 95.8014 -5.55112e-17
584 2 51.2909 19.5603 -5.55112e-17
585 1 5.90176 60.4165 -5.55112e-17
586 1 88.0728 182.713 -5.55112e-17
587 1 53.3323 17.9848 -5.55112e-17
588 2 164.92 73.7082 -5.55112e-17
589 1 100.583 214.113 -5.55112e-17
590 2 151.294 123.879 -5.55112e-17
591 2 177.323 62.5883 -5.55112e-17
592 1 120.489 126.398 -5.55112e-17
593 1 174.896 78.5062 -5.55112e-17
594 1 193.668 79.5237 -5.55112e-17
595 1 84.4132 39.49 -5.55112e-17
596 2 94.9615 103.811 -5.55112e-17
597 2 8.22446 104.145 -5.55112e-17
598 2 115.94 163.274 -5.55112e-17
599 2 42.7447 128.828 -5.55112e-17
600 2 76.0696 17.0598 -5.55112e-17
601 1 207.367 17.8845 -5.55112e-17
602 1 85.5112 204.267 -5.55112e-17
603 2 214.779 78.5901 -5.55112e-17
604 1 126.51 119.661 -5.55112e-17
605 2 107.736 213.415 -5.55112e-17
606 2 87.6203 119.194 -5.55112e-17
607 2 74.2578 200.758 -5.55112e-17
608 2 40.8297 39.8285 -5.55112e-17
609 1 190.493 62.4144 -5.55112e-17
610 2 106.633 100.742 -5.55112e-17
611 1 110.81 143.848 -5.55112e-17
612 1 145.579 65.3405 -5.55112e-17
613 2 39.9967 54.1951 -5.55112e-17
614 1 103.889 56.4089 -5.55112e-17
615 1 94.0754 192.291 -5.55112e-17
616 2 145.732 80.8288 -5.55112e-17
617 1 96.7483 94.7077 -5.55112e-17
618 1 201.543 123.205 -5.55112e-17
619 1 77.4994 175.334 -5.55112e-17
620 2 142.747 2.58403 -5.55112e-17
621 2 143.576 25.4993 -5.55112e-17
622 2 139.568 53.8337 -5.55112e-17
623 2 148.716 141.449 -5.55112e-17
624 1 199.942 90.5924 -5.55112e-17
625 2 166.199 94.8188 -5.55112e-17
626 1 193.723 87.0913 -5.55112e-17
627 2 77.3372 58.3872 -5.55112e-17
628 1 12.2916 108.257 -5.55112e-17
629 1 37.2444 99.0078 -5.55112e-17
630 2 83.0299 127.571 -5.55112e-17
631 2 184.741 193.652 -5.55112e-17
632 2 212.796 69.2495 -5.55112e-17
633 2 17.7521 149.173 -5.55112e-17
634 2 79.5567 10.335 -5.55112e-17
635 2 113.652 178.938 -5.55112e-17
636 1 179.682 42.6459 -5.55112e-17
637 1 97.6416 16.7497 -5.55112e-17
638 1 50.5139 124.317 -5.55112e-17
639 2 159.457 117.788 -5.55112e-17
640 2 218.297 29.7107 -5.55112e-17
641 1 62.3786 40.4771 -5.55112e-17
642 2 22.811 68.139 -5.55112e-17
643 1 209.683 117.235 -5.55112e-17
644 2 19.9488 89.7408 -5.55112e-17
645 2 11.1279 65.4522 -5.55112e-17
646 1 205.902 98.4492 -5.55112e-17
647 2 217.851 172.171 -5.55112e-17
648 2 167.607 72.4496 -5.55112e-17
649 1 27.158 59.1392 -5.55112e-17
650 1 54.4146 43.7328 -5.55112e-17
651 1 140.78 215.25 -5.55112e-17
652 2 45.1927 15.7693 -5.55112e-17
653 2 130.32 135.695 -5.55112e-17
654 1 115.993 195.839 -5.55112e-17
655 1 72.1965 210.557 -5.55112e-17
656 1 135.53 206.565 -5.55112e-17
657 1 27.8885 202.861 -5.55112e-17
658 2 43.6075 212.979 -5.55112e-17
659 2 123.134 15.1878 -5.55112e-17
660 1 58.731 44.0577 -5.55112e-17
661 2 146.086 151.033 -5.55112e-17
662 2 8.26989 60.265 -5.55112e-17
663 1 50.7043 113.516 -5.55112e-17
664 1 217.529 78.456 -5.55112e-17
665 1 13.4616 170.587 -5.55112e-17
666 1 213.744 92.5364 -5.55112e-17
667 1 133.1 207.065 -5.55112e-17
668 1 119.601 119.892 -5.55112e-17
669 1 59.9244 168.272 -5.55112e-17
670 2 98.0969 81.6761 -5.55112e-17
671 1 78.9938 121 -5.55112e-17
672 1 31.1385 214.976 -5.55112e-17
673 2 176.636 216.372 -5.55112e-17
674 2 128.208 146.48 -5.55112e-17
675 2 16.5265 31.7893 -5.55112e-17
676 1 45.3894 210.814 -5.55112e-17
677 2 215.18 122.808 -5.55112e-17
678 1 176.698 67.3132 -5.55112e-17
679 1 154.331 99.2225 -5.55112e-17
680 2 29.4057 31.1841 -5.55112e-17
681 1 26.1594 121.156 -5.55112e-17
682 1 168.687 169.291 -5.55112e-17
683 2 136.642 74.4607 -5.55112e-17
684 1 25.4854 159.114 -5.55112e-17
685 1 128.893 108.226 -5.55112e-17
686 1 112.106 138.855 -5.55112e-17
687 1 20.067 158.709 -5.55112e-17
688 1 94.9169 49.4231 -5.55112e-17
689 2 148.989 170.353 -5.55112e-17
690 1 2.47888 21.1359 -5.55112e-17
691 2 11.3327 196.214 -5.55112e-17
692 2 133.212 16.8846 -5.55112e-17
693 1 88.8307 187.607 -5.55112e-17
694 2 59.7805 52.0994 -5.55112e-17
695 2 112.948 14.0048 -5.55112e-17
696 2 111.364 113.612 -5.55112e-17
697 1 45.2669 28.5481 -5.55112e-17
698 2 34.2542 71.0083 -5.55112e-17
699 1 45.8215 197.837 -5.55112e-17
700 2 191.2 168.45 -5.55112e-17
701 2 17.7659 79.6654 -5.55112e-17
702 1 180.172 154.597 -5.55112e-17
703 1 107.738 89.7839 -5.55112e-17
704 1 146.274 39.7992 -5.55112e-17
705 1 103.665 156.222 -5.55112e-17
706 1 121.588 202.68 -5.55112e-17
707 1 138.346 145.646 -5.55112e-17
708 2 71.2632 122.4 -5.55112e-17
709 1 85.2397 149.124 -5.55112e-17
710 2 150.009 167.341 -5.55112e-17
711 2 125.545 145.147 -5.55112e-17
712 1 169.335 16.2679 -5.55112e-17
713 1 140.816 13.4996 -5.55112e-17
714 2 139.004 33.8855 -5.55112e-17
715 2 152.428 44.4729 -5.55112e-17
716 1 54.2294 173.085 -5.55112e-17
717 1 159.621 14.9699 -5.55112e-17
718 2 45.4434 45.7184 -5.55112e-17
719 1 189.041 24.6805 -5.55112e-17
720 2 208.559 87.2927 -5.55112e-17
721 2 181.83 164.291 -5.55112e-17
722 2 209.159 196.629 -5.55112e-17
723 2 45.1811 157.017 -5.55112e-17
724 2 133.604 86.2895 -5.55112e-17
725 2 102.895 117.299 -5.55112e-17
726 2 63.3701 132.376 -5.55112e-17
727 2 67.2753 136.577 -5.55112e-17
728 1 0.0539867 162.227 -5.55112e-17
729 2 144.488 176.641 -5.55112e-17
730 2 206.753 162.187 -5.55112e-17
731 1 211.307 91.4152 -5.55112e-17
732 2 37.6005 127.886 -5.55112e-17
733 2 31.9227 107.682 -5.55112e-17
734 2 127.314 207.551 -5.55112e-17
735 2 60.8893 48.1322 -5.55112e-17
736 1 87.7266 150.883 -5.55112e-17
737 2 0.582507 8.95244 -5.55112e-17
738 2 154.015 168.22 -5.55112e-17
739 2 69.5378 210.39 -5.55112e-17
740 2 149.446 2.9198 -5.55112e-17
741 2 146.684 53.3307 -5.55112e-17
742 1 38.5464 176.56 -5.55112e-17
743 2 143.312 191.494 -5.55112e-17
744 1 3.90338 113.197 -5.55112e-17
745 2 133.971 73.5616 -5.55112e-17
746 1 26.7288 208.195 -5.55112e-17
747 1 65.5146 41.4642 -5.55112e-17
748 2 200.841 138.63 -5.55112e-17
749 1 150.287 89.0849 -5.55112e-17
750 1 212.918 175.516 -5.55112e-17
751 1 81.9314 34.1192 -5.55112e-17
752 2 154.798 191.451 -5.55112e-17
753 1 45.3715 164.494 -5.55112e-17
754 2 119.896 112.697 -5.55112e-17
755 1 216.937 162.564 -5.55112e-17
756 2 137.694 108.777 -5.55112e-17
757 1 172.485 129.769 -5.55112e-17
758 2 216.1 199.974 -5.55112e-17
759 1 25.1883 77.9384 -5.55112e-17
760 1 190.183 55.8567 -5.55112e-17
761 2 121.851 128.804 -5.55112e-17
762 1 176.107 138.38 -5.55112e-17
763 2 178.145 147.912 -5.55112e-17
764 2 30.3281 3.12821 -5.55112e-17
765 1 192.048 97.5466 -5.55112e-17
766 2 62.9433 139.658 -5.55112e-17
767 2 14.1502 3.3038 -5.55112e-17
768 2 166.322 102.816 -5.55112e-17
769 2 46.6793 200.726 -5.55112e-17
770 1 68.5322 149.733 -5.55112e-17
771 1 84.7428 67.614 -5.55112e-17
772 1 78.1366 123.225 -5.55112e-17
773 2 78.7042 78.5272 -5.55112e-17
774 1 196.662 129.222 -5.55112e-17
775 1 118.472 115.019 -5.55112e-17
776 2 52.2306 8.03194 -5.55112e-17
777 2 9.73984 186.083 -5.55112e-17
778 1 191.126 71.457 -5.55112e-17
779 1 159.283 142.75 -5.55112e-17
780 2 139.362 103.489 -5.55112e-17
781 1 188.018 218.204 -5.55112e-17
782 2 76.9626 163.771 -5.55112e-17
783 1 46.5105 67.555 -5.55112e-17
784 2 28.4511 56.0584 -5.55112e-17
785 1 178.356 58.1104 -5.55112e-17
786 1 202.963 49.1391 -5.55112e-17
787 2 121.097 209.716 -5.55112e-17
788 2 133.53 216.255 -5.55112e-17
789 2 96.3511 182.577 -5.55112e-17
790 2 210.529 176.62 -5.55112e-17
791 2 64.5911 14.4636 -5.55112e-17
792 1 142.195 159.261 -5.55112e-17
793 1 112.702 202.428 -5.55112e-17
794 2 173.06 107.212 -5.55112e-17
795 2 181.696 126.513 -5.55112e-17
796 1 167.12 32.892 -5.55112e-17
797 1 73.2695 48.5785 -5.55112e-17
798 1 156.196 38.1386 -5.55112e-17
799 2 170.386 187.185 -5.55112e-17
800 1 6.94234 127.494 -5.55112e-17
801 2 18.9129 134.376 -5.55112e-17
802 1 200.944 64.5909 -5.55112e-17
803 1 44.5485 121.003 -5.55112e-17
804 1 38.077 19.195 -5.55112e-17
805 2 200.311 178.553 -5.55112e-17
806 2 212.237 4.23755 -5.55112e-17
807 2 193.636 195.747 -5.55112e-17
808 2 13.564 19.1175 -5.55112e-17
809 1 117.946 31.7085 -5.55112e-17
810 2 89.0079 180.335 -5.55112e-17
811 2 104.807 139.934 -5.55112e-17
812 1 171.1 38.8186 -5.55112e-17
813 1 109.264 196.12 -5.55112e-17
814 1 61.3008 106.297 -5.55112e-17
815 1 34.6889 46.7351 -5.55112e-17
816 1 74.192 144.797 -5.55112e-17
817 2 57.0621 128.48 -5.55112e-17
818 2 7.39817 161.84 -5.55112e-17
819 2 181.701 120.141 -5.55112e-17
820 1 104.639 52.3433 -5.55112e-17
821 1 196.144 202.152 -5.55112e-17
822 2 43.9907 62.5863 -5.55112e-17
823 1 153.793 209.659 -5.55112e-17
824 1 83.466 217.262 -5.55112e-17
825 1 217.589 132.041 -5.55112e-17
826 2 14.2275 175.135 -5.55112e-17
827 2 87.2086 155.956 -5.55112e-17
828 1 7.92224 178.003 -5.55112e-17
829 2 166.268 22.6904 -5.55112e-17
830 1 29.2687 175.503 -5.55112e-17
831 2 200.558 107.683 -5.55112e-17
832 2 185.114 108.305 -5.55112e-17
833 2 20.6061 161.198 -5.55112e-17
834 1 206.442 121.689 -5.55112e-17
835 1 211.865 46.9873 -5.55112e-17
836 1 124.069 119.2 -5.55112e-17
837 2 92.0327 86.2318 -5.55112e-17
838 2 143.374 171.827 -5.55112e-17
839 1 7.60623 10.9344 -5.55112e-17
840 2 75.432 60.4629 -5.55112e-17
841 2 177.931 179.665 -5.55112e-17
842 1 71.4617 106.166 -5.55112e-17
843 1 211.556 19.6186 -5.55112e-17
844 2 177.874 182.233 -5.55112e-17
845 1 183.178 9.98945 -5.55112e-17
846 2 94.1681 2.62383 -5.55112e-17
847 1 167.784 6.51391 -5.55112e-17
848 2 194.048 179.624 -5.55112e-17
849 1 99.1682 79.6554 -5.55112e-17
850 2 127.378 60.8662 -5.55112e-17
851 2 176.5 170.451 -5.55112e-17
852 1 120.583 170.753 -5.55112e-17
853 1 206.959 6.39945 -5.55112e-17
854 2 63.3117 149.331 -5.55112e-17
855 2 45.2425 95.1304 -5.55112e-17
856 1 64.4744 89.0615 -5.55112e-17
857 2 24.2551 119.324 -5.55112e-17