ITEM: TIMESTEP
0
ITEM: NUMBER OF ATOMS
7200
ITEM: BOX BOUNDS xy xz yz pp pp pp
0.0000000000000000e+00 2.1900000000000000e+02 0.0000000000000000e+00
0.0000000000000000e+00 2.1900000000000000e+02 0.0000000000000000e+00
-3.6499999999999999e-01 3.6499999999999999e-01 0.0000000000000000e+00
ITEM: ATOMS id type x y z
1 1 45.5077 71.6038 -5.55112e-17
2 2 52.2449 136.261 -5.55112e-17
3 2 64.3607 183.673 -5.55112e-17
4 1 6.5263 49.1162 -5.55112e-17
5 1 135.811 8.503 -5.55112e-17
6 1 166.665 173.356 -5.55112e-17
7 2 150.971 185.985 -5.55112e-17
8 2 131.674 68.7501 -5.55112e-17
9 1 175.386 75.3504 -5.55112e-17
10 2 130.639 120.545 -5.55112e-17
11 2 168.25 73.199 -5.55112e-17
12 1 165.537 2.19469 -5.55112e-17
13 2 133.108 88.8519 -5.55112e-17
14 1 134.653 122.541 -5.55112e-17
15 2 171.07 45.9822 -5.55112e-17
16 2 28.3732 118.421 -5.55112e-17
17 1 108.696 138.425 -5.55112e-17
18 2 82.16 111.813 -5.55112e-17
19 1 16.8645 108.296 -5.55112e-17
20 1 149.249 150.244 -5.55112e-17
21 1 70.8556 215.046 -5.55112e-17
22 2 123.761 34.2462 -5.55112e-17
23 2 111.88 166.533 -5.55112e-17
24 2 88.9728 119.55 -5.55112e-17
25 2 15.0512 148.792 -5.55112e-17
26 2 145.904 77.5286 -5.55112e-17
27 1 182.41 87.5091 -5.55112e-17
28 2 90.6368 54.9909 -5.55112e-17
29 2 136.326 182.854 -5.55112e-17
30 2 16.9715 170.382 -5.55112e-17
31 2 56.1365 187.681 -5.55112e-17
32 1 21.7908 89.2959 -5.55112e-17
33 2 213.321 167.886 -5.55112e-17
34 2 11.5694 24.4889 -5.55112e-17
35 2 27.4687 140.996 -5.55112e-17
36 1 179.742 48.6984 -5.55112e-17
37 1 19.9304 12.9184 -5.55112e-17
38 2 151.859 112.116 -5.55112e-17
39 1 40.358 5.04401 -5.55112e-17
40 2 128.167 18.1871 -5.55112e-17
41 1 110.584 78.1234 -5.55112e-17
42 1 214.165 102.346 -5.55112e-17
43 1 26.2125 213.665 -5.55112e-17
44 1 196.091 84.13 -5.55112e-17
45 2 147.755 152.275 -5.55112e-17
46 1 103.92 6.03878 -5.55112e-17
47 2 97.1847 52.4872 -5.55112e-17
48 2 28.661 55.3052 -5.55112e-17
49 1 19.6524 16.813 -5.55112e-17
50 2 88.6197 156.484 -5.55112e-17
51 1 143.878 1.46515 -5.55112e-17
52 1 173.857 14.322 -5.55112e-17
53 2 143.636 180.068 -5.55112e-17
54 1 68.7197 64.9921 -5.55112e-17
55 2 23.8756 77.5615 -5.55112e-17
56 1 104.129 53.5062 -5.55112e-17
57 2 99.9367 10.4118 -5.55112e-17
58 1 22.1834 157.258 -5.55112e-17
59 1 24.9248 186.568 -5.55112e-17
60 2 67.656 5.33305 -5.55112e-17
61 1 21.3004 94.3627 -5.55112e-17
62 1 86.4258 170.539 -5.55112e-17
63 2 209.917 210.798 -5.55112e-17
64 1 161.908 110.643 -5.55112e-17
65 2 210.24 107.017 -5.55112e-17
66 2 182.681 103.141 -5.55112e-17
67 2 186.656 90.2935 -5.55112e-17
68 1 74.1369 162.117 -5.55112e-17
69 2 18.3178 63.1903 -5.55112e-17
70 1 96.1475 119.566 -5.55112e-17
71 1 54.2276 149.366 -5.55112e-17
72 2 82.7119 86.4124 -5.55112e-17
73 2 38.1717 19.8281 -5.55112e-17
74 2 45.6568 19.1186 -5.55112e-17
75 1 66.4323 85.741 -5.55112e-17
76 2 190.944 92.662 -5.55112e-17
77 2 102.776 103.307 -5.55112e-17
78 1 184.442 171.064 -5.55112e-17
79 2 156.073 38.5299 -5.55112e-17
80 1 172.603 105.391 -5.55112e-17
81 1 108.743 110.522 -5.55112e-17
82 1 184.22 19.6859 -5.55112e-17
83 1 32.6776 61.8536 -5.55112e-17
84 2 113.193 37.0284 -5.55112e-17
85 2 105.16 163.752 -5.55112e-17
86 2 60.6731 104.117 -5.55112e-17
87 2 82.6368 69.3135 -5.55112e-17
88 1 41.8809 114.428 -5.55112e-17
89 2 40.5622 171.547 -5.55112e-17
90 2 154.022 81.6209 -5.55112e-17
91 2 73.8862 64.5639 -5.55112e-17
92 1 46.2729 156.391 -5.55112e-17
93 2 95.7679 159.471 -5.55112e-17
94 2 206.994 80.6918 -5.55112e-17
95 1 4.53966 154.195 -5.55112e-17
96 2 61.6691 90.5793 -5.55112e-17
97 2 214.879 153.019 -5.55112e-17
98 2 211.061 123.403 -5.55112e-17
99 1 203.687 95.8922 -5.55112e-17
100 2 124.529 25.3726 -5.55112e-17
101 1 55.0549 73.5747 -5.55112e-17
102 1 126.89 15.8877 -5.55112e-17
103 2 44.7509 180.661 -5.55112e-17
104 2 182.007 210.653 -5.55112e-17
105 1 94.4337 43.6893 -5.55112e-17
106 1 184.009 118.351 -5.55112e-17
107 1 96.3616 184.875 -5.55112e-17
108 1 203.895 20.3089 -5.55112e-17
109 2 124.479 112.548 -5.55112e-17
110 2 100.289 94.7248 -5.55112e-17
111 1 195.606 204.775 -5.55112e-17
112 2 57.2844 46.7824 -5.55112e-17
113 1 75.9146 45.5626 -5.55112e-17
114 1 12.8709 135.858 -5.55112e-17
115 2 42.0877 128.584 -5.55112e-17
116 2 15.314 64.7839 -5.55112e-17
117 1 168.468 195.797 -5.55112e-17
118 1 187.827 68.6446 -5.55112e-17
119 2 94.1342 194.499 -5.55112e-17
120 2 163.314 53.123 -5.55112e-17
121 1 176.942 62.7324 -5.55112e-17
122 2 215.877 211.027 -5.55112e-17
123 2 92.0204 217.991 -5.55112e-17
124 1 198.529 74.5961 -5.55112e-17
125 1 177.338 101.942 -5.55112e-17
126 2 22.4894 98.9828 -5.55112e-17
127 2 210.048 191.65 -5.55112e-17
128 1 76.9794 89.2239 -5.55112e-17
129 1 31.9814 179.376 -5.55112e-17
130 2 150.46 49.0133 -5.55112e-17
131 1 184.21 209.069 -5.55112e-17
132 1 153.188 20.3856 -5.55112e-17
133 1 137.138 175.826 -5.55112e-17
134 1 139.991 145.952 -5.55112e-17
135 2 34.4377 184.131 -5.55112e-17
136 1 169.517 89.1669 -5.55112e-17
137 1 213.859 127.808 -5.55112e-17
138 2 193.319 12.4225 -5.55112e-17
139 1 129.868 144.344 -5.55112e-17
140 1 189.812 127.076 -5.55112e-17
141 1 143.746 189.677 -5.55112e-17
142 1 124.625 43.0013 -5.55112e-17
143 1 128.705 42.36 -5.55112e-17
144 1 10.6073 5.23136 -5.55112e-17
145 2 193.501 120.788 -5.55112e-17
146 1 3.28779 94.9773 -5.55112e-17
147 2 93.3643 129.199 -5.55112e-17
148 1 85.2804 87.2536 -5.55112e-17
149 1 113.152 59.0281 -5.55112e-17
150 2 103.403 192.773 -5.55112e-17
151 1 46.7466 175.427 -5.55112e-17
152 1 190.131 12.0987 -5.55112e-17
153 2 76.5644 146.625 -5.55112e-17
154 1 87.3394 190.517 -5.55112e-17
155 2 68.1809 197.975 -5.55112e-17
156 2 13.6772 175.382 -5.55112e-17
157 2 188.632 111.935 -5.55112e-17
158 2 64.4641 171.234 -5.55112e-17
159 2 69.9274 192.682 -5.55112e-17
160 2 64.0179 10.0479 -5.55112e-17
161 2 168.59 99.4893 -5.55112e-17
162 1 126.487 137.559 -5.55112e-17
163 1 154.969 151.595 -5.55112e-17
164 2 33.8334 81.5878 -5.55112e-17
165 1 111.333 138.552 -5.55112e-17
166 2 145.087 215.499 -5.55112e-17
167 1 213.568 142.341 -5.55112e-17
168 1 201.055 178.287 -5.55112e-17
169 2 143.805 198.858 -5.55112e-17
170 1 27.4989 116.17 -5.55112e-17
171 1 149.671 159.251 -5.55112e-17
172 1 21.4958 51.599 -5.55112e-17
173 1 108.08 39.3466 -5.55112e-17
174 2 147.634 58.4325 -5.55112e-17
175 2 152.803 88.8362 -5.55112e-17
176 1 46.9679 100.297 -5.55112e-17
177 2 51.976 0.123666 -5.55112e-17
178 1 48.929 208.035 -5.55112e-17
179 2 102.171 89.7436 -5.55112e-17
180 1 192.885 197.596 -5.55112e-17
181 1 131.882 140.016 -5.55112e-17
182 1 163.025 188.572 -5.55112e-17
183 1 98.6075 200.918 -5.55112e-17
184 2 83.4069 42.7437 -5.55112e-17
185 2 107.756 33.8954 -5.55112e-17
186 2 73.6861 166.742 -5.55112e-17
187 2 17.7636 29.2099 -5.55112e-17
188 2 106.755 54.6706 -5.55112e-17
189 1 27.9197 189.647 -5.55112e-17
190 1 109.864 140.781 -5.55112e-17
191 2 38.8515 52.6531 -5.55112e-17
192 2 124.308 76.6194 -5.55112e-17
193 1 21.4409 168.965 -5.55112e-17
194 1 29.1 184.034 -5.55112e-17
195 2 186.297 96.6534 -5.55112e-17
196 1 153.884 181.542 -5.55112e-17
197 2 195.581 109.194 -5.55112e-17
198 2 210.527 50.7318 -5.55112e-17
199 2 199.257 179.935 -5.55112e-17
200 2 131.369 213.238 -5.55112e-17
201 2 171.82 61.2021 -5.55112e-17
202 1 94.6298 123.622 -5.55112e-17
203 1 124.814 115.376 -5.55112e-17
204 2 211.292 119.043 -5.55112e-17
205 2 60.6525 74.7701 -5.55112e-17
206 2 140.252 58.3966 -5.55112e-17
207 1 216.142 122.989 -5.55112e-17
208 2 4.5317 47.2095 -5.55112e-17
209 2 152.017 160.198 -5.55112e-17
210 1 47.8076 215.972 -5.55112e-17
211 1 0.283178 162.596 -5.55112e-17
212 1 209.329 57.5338 -5.55112e-17
213 1 217.542 30.8777 -5.55112e-17
214 2 96.6931 73.3696 -5.55112e-17
215 1 145.356 135.36 -5.55112e-17
216 1 165.145 156.395 -5.55112e-17
217 1 43.0575 49.2691 -5.55112e-17
218 2 91.1233 21.9888 -5.55112e-17
219 2 104.924 32.0288 -5.55112e-17
220 1 175.382 70.1911 -5.55112e-17
221 2 59.8033 129.359 -5.55112e-17
222 1 97.6689 9.18531 -5.55112e-17
223 1 181.15 54.3784 -5.55112e-17
224 2 59.7318 177.831 -5.55112e-17
225 2 144.01 39.2522 -5.55112e-17
226 1 102.086 75.1862 -5.55112e-17
227 2 137.529 112.929 -5.55112e-17
228 2 182.07 159.382 -5.55112e-17
229 1 11.614 54.7191 -5.55112e-17
230 1 98.1816 114.597 -5.55112e-17
231 2 28.8182 29.9772 -5.55112e-17
232 1 113.697 181.934 -5.55112e-17
233 2 104.858 70.8423 -5.55112e-17
234 1 137.979 92.0029 -5.55112e-17
235 1 43.332 53.8879 -5.55112e-17
236 2 63.1068 58.1838 -5.55112e-17
237 2 126.511 130.221 -5.55112e-17
238 2 1.64032 172.808 -5.55112e-17
239 1 130.036 12.7685 -5.55112e-17
240 1 73.9839 196.809 -5.55112e-17
241 2 125.9 123.595 -5.55112e-17
242 1 8.22732 122.683 -5.55112e-17
243 2 199.076 69.8252 -5.55112e-17
244 2 170.89 119.432 -5.55112e-17
245 1 192.485 173.13 -5.55112e-17
246 2 149.729 89.4228 -5.55112e-17
247 2 11.9674 140.625 -5.55112e-17
248 1 171.734 216.013 -5.55112e-17
249 1 99.8865 56.8197 -5.55112e-17
250 1 142.114 183.979 -5.55112e-17
251 2 134.452 27.9428 -5.55112e-17
252 1 44.4495 139.936 -5.55112e-17
253 2 177.921 109.726 -5.55112e-17
254 2 41.8082 63.3172 -5.55112e-17
255 2 144.845 33.2652 -5.55112e-17
256 1 164.139 217.02 -5.55112e-17
257 2 1.96429 9.46661 -5.55112e-17
258 1 177.621 0.246723 -5.55112e-17
259 2 24.602 158.323 -5.55112e-17
260 1 45.5729 165.61 -5.55112e-17
261 2 211.84 199.104 -5.55112e-17
262 2 129.247 112.929 -5.55112e-17
263 2 77.6673 76.0913 -5.55112e-17
264 1 172.571 43.909 -5.55112e-17
265 1 97.3882 209.572 -5.55112e-17
266 1 137.972 30.6045 -5.55112e-17
267 2 147.326 42.7129 -5.55112e-17
268 1 14.6934 106.523 -5.55112e-17
269 2 176.459 128.926 -5.55112e-17
270 2 156.75 192.548 -5.55112e-17
271 2 143.947 19.8745 -5.55112e-17
272 1 148.191 115.033 -5.55112e-17
273 1 171.851 151.368 -5.55112e-17
274 1 144.413 142.742 -5.55112e-17
275 1 50.7958 212.116 -5.55112e-17
276 1 70.2739 151.948 -5.55112e-17
277 1 86.9712 0.451512 -5.55112e-17
278 2 15.0303 125.728 -5.55112e-17
279 2 9.54506 2.62187 -5.55112e-17
280 1 190.893 186.017 -5.55112e-17
281 2 106.963 207.354 -5.55112e-17
282 2 72.6956 78.1978 -5.55112e-17
283 2 48.9495 184.644 -5.55112e-17
284 1 58.1664 36.7567 -5.55112e-17
285 1 7.18654 168.062 -5.55112e-17
286 2 157.89 173.185 -5.55112e-17
287 2 199.435 153.941 -5.55112e-17
288 1 204.042 162.921 -5.55112e-17
289 2 162.242 214.762 -5.55112e-17
290 1 36.6333 82.8055 -5.55112e-17
291 2 66.3051 204.2 -5.55112e-17
292 1 163.325 68.5036 -5.55112e-17
293 1 9.66446 202.738 -5.55112e-17
294 1 191.832 23.2122 -5.55112e-17
295 2 138.543 38.4371 -5.55112e-17
296 1 93.6897 112.454 -5.55112e-17
297 1 147.183 158.434 -5.55112e-17
298 2 187.155 80.0935 -5.55112e-17
299 1 124.817 121.166 -5.55112e-17
300 2 125.953 2.5899 -5.55112e-17
301 2 120.89 52.4466 -5.55112e-17
302 2 23.9745 168.942 -5.55112e-17
303 1 110.824 158.131 -5.55112e-17
304 1 43.6507 199.515 -5.55112e-17
305 1 47.9408 28.4621 -5.55112e-17
306 2 30.9324 120.797 -5.55112e-17
307 2 4.77921 84.3101 -5.55112e-17
308 2 103.402 3.19674 -5.55112e-17
309 1 65.2214 33.4199 -5.55112e-17
310 1 218.162 57.498 -5.55112e-17
311 1 198.641 211.928 -5.55112e-17
312 2 185.588 154.727 -5.55112e-17
313 2 112.97 85.3073 -5.55112e-17
314 1 39.8917 80.2579 -5.55112e-17
315 2 60.1214 199.901 -5.55112e-17
316 1 181.064 97.8956 -5.55112e-17
317 1 39.3423 123.62 -5.55112e-17
318 1 59.5332 85.6742 -5.55112e-17
319 2 44.0241 163.539 -5.55112e-17
320 1 213.38 43.6727 -5.55112e-17
321 1 204.882 183.679 -5.55112e-17
322 1 35.8156 143.986 -5.55112e-17
323 2 125.587 91.0683 -5.55112e-17
324 2 138.833 137.571 -5.55112e-17
325 2 5.81834 117.8 -5.55112e-17
326 1 137.697 180.346 -5.55112e-17
327 1 67.1194 170.337 -5.55112e-17
328 2 53.5476 63.5649 -5.55112e-17
329 2 215.42 190.923 -5.55112e-17
330 2 129.409 168.827 -5.55112e-17
331 2 145.755 191.717 -5.55112e-17
332 2 160.227 64.151 -5.55112e-17
333 2 131.424 71.9605 -5.55112e-17
334 2 30.0174 62.092 -5.55112e-17
335 1 144.625 52.7806 -5.55112e-17
336 2 74.6301 39.7913 -5.55112e-17
337 2 162.979 136.853 -5.55112e-17
338 1 68.9603 39.3071 -5.55112e-17
339 2 83.9384 75.9678 -5.55112e-17
340 2 146.573 213.03 -5.55112e-17
341 2 162.449 31.219 -5.55112e-17
342 2 57.3979 28.9993 -5.55112e-17
343 2 108.139 194.167 -5.55112e-17
344 1 107.23 204.384 -5.55112e-17
345 2 109.978 70.5171 -5.55112e-17
346 2 173.175 75.7713 -5.55112e-17
347 1 83.0561 153.518 -5.55112e-17
348 1 6.30293 186.706 -5.55112e-17
349 2 154.443 77.1278 -5.55112e-17
350 2 49.4417 121.244 -5.55112e-17
351 1 77.3455 86.3908 -5.55112e-17
352 1 151.452 82.0086 -5.55112e-17
353 2 7.29353 53.6801 -5.55112e-17
354 2 189.038 56.5747 -5.55112e-17
355 1 110.588 108.775 -5.55112e-17
356 2 184.857 101.893 -5.55112e-17
357 1 160.097 20.7305 -5.55112e-17
358 1 159.874 151.67 -5.55112e-17
359 1 81.1474 5.10693 -5.55112e-17
360 1 113.678 4.85595 -5.55112e-17
361 2 38.8348 153.976 -5.55112e-17
362 2 0.100763 150.572 -5.55112e-17
363 1 138.628 135.083 -5.55112e-17
364 2 68.5958 188.93 -5.55112e-17
365 1 176.632 60.2533 -5.55112e-17
366 1 133.778 55.9001 -5.55112e-17
367 1 214.919 105.665 -5.55112e-17
368 1 134.72 54.0396 -5.55112e-17
369 2 153.704 109.569 -5.55112e-17
370 1 157.269 58.2414 -5.55112e-17
371 2 178.519 10.5682 -5.55112e-17
372 1 78.4373 190.31 -5.55112e-17
373 2 182.836 52.295 -5.55112e-17
374 2 57.2429 168.973 -5.55112e-17
375 1 212.048 81.3462 -5.55112e-17
376 1 149.566 16.0939 -5.55112e-17
377 2 216.827 177.341 -5.55112e-17
378 2 47.6268 70.0852 -5.55112e-17
379 2 148.244 164.064 -5.55112e-17
380 1 142.684 122.759 -5.55112e-17
381 1 118.17 169.701 -5.55112e-17
382 1 165.729 89.7946 -5.55112e-17
383 1 216.805 151.42 -5.55112e-17
384 2 104.815 26.687 -5.55112e-17
385 1 47.5395 60.0438 -5.55112e-17
386 2 176.049 96.5906 -5.55112e-17
387 1 3.38185 194.844 -5.55112e-17
388 1 90.7648 4.49973 -5.55112e-17
389 2 170.731 4.34468 -5.55112e-17
390 1 96.1711 4.56852 -5.55112e-17
391 1 142.3 214.59 -5.55112e-17
392 2 115.447 79.4115 -5.55112e-17
393 2 81.019 204.004 -5.55112e-17
394 1 162.66 64.0639 -5.55112e-17
395 1 170.074 104.695 -5.55112e-17
396 2 204.096 214.424 -5.55112e-17
397 1 34.0087 152.549 -5.55112e-17
398 2 193.693 93.3595 -5.55112e-17
399 2 207.249 173.648 -5.55112e-17
400 2 43.9264 131.369 -5.55112e-17
401 2 115.134 149.692 -5.55112e-17
402 1 120.788 136.027 -5.55112e-17
403 1 151.311 181.286 -5.55112e-17
404 2 195.323 43.2588 -5.55112e-17
405 1 31.9319 200.038 -5.55112e-17
406 2 183.454 138.209 -5.55112e-17
407 1 164.904 158.778 -5.55112e-17
408 1 43.0883 178.487 -5.55112e-17
409 2 60.254 29.8445 -5.55112e-17
410 2 201.61 53.426 -5.55112e-17
411 1 40.5632 190.792 -5.55112e-17
412 1 93.2072 50.9846 -5.55112e-17
413 1 214.509 160.451 -5.55112e-17
414 2 80.8943 34.8746 -5.55112e-17
415 1 161.112 75.6151 -5.55112e-17
416 1 179.514 87.3093 -5.55112e-17
417 2 54.6025 46.6961 -5.55112e-17
418 2 105.348 218.364 -5.55112e-17
419 2 198.038 134.301 -5.55112e-17
420 2 2.03781 157.996 -5.55112e-17
421 1 140.418 98.0833 -5.55112e-17
422 1 142.062 144.418 -5.55112e-17
423 2 10.8354 31.2285 -5.55112e-17
424 2 171.326 100.256 -5.55112e-17
425 2 142.775 207.355 -5.55112e-17
426 1 155.733 177.653 -5.55112e-17
427 2 159.629 33.3939 -5.55112e-17
428 1 56.1587 209.036 -5.55112e-17
429 2 51.065 103.769 -5.55112e-17
430 2 179.016 184.088 -5.55112e-17
431 1 197.794 37.8641 -5.55112e-17
432 2 7.058 27.345 -5.55112e-17
433 1 214.14 38.6376 -5.55112e-17
434 1 153.063 142.92 -5.55112e-17
435 1 209.619 120.974 -5.55112e-17
436 2 129.133 34.4036 -5.55112e-17
437 2 72.7166 81.4821 -5.55112e-17
438 2 45.1529 33.4496 -5.55112e-17
439 2 3.66423 87.0925 -5.55112e-17
440 2 172.987 2.14848 -5.55112e-17
441 1 184.691 203.92 -5.55112e-17
442 1 93.2453 55.3058 -5.55112e-17
443 2 140.881 200.499 -5.55112e-17
444 1 47.8156 128.637 -5.55112e-17
445 1 25.391 72.6649 -5.55112e-17
446 2 215.956 7.09656 -5.55112e-17
447 2 158.659 13.4794 -5.55112e-17
448 2 28.327 136.513 -5.55112e-17
449 1 149.169 53.782 -5.55112e-17
450 1 159.365 86.794 -5.55112e-17
451 1 111.506 153.708 -5.55112e-17
452 2 184.87 135.294 -5.55112e-17
453 1 51.6138 183.966 -5.55112e-17
454 1 65.9939 189.332 -5.55112e-17
455 2 112.987 12.2949 -5.55112e-17
456 1 146.038 181.478 -5.55112e-17
457 2 56.1854 162.724 -5.55112e-17
458 2 16.7245 218.97 -5.55112e-17
459 2 157.754 170.469 -5.55112e-17
460 1 73.3135 127.265 -5.55112e-17
461 1 56.1528 97.833 -5.55112e-17
462 1 210.887 201.3 -5.55112e-17
463 2 107.038 149.525 -5.55112e-17
464 2 36.4996 87.4952 -5.55112e-17
465 1 126.693 168.513 -5.55112e-17
466 2 192.051 20.5011 -5.55112e-17
467 2 164.558 13.3314 -5.55112e-17
468 2 214.402 198.946 -5.55112e-17
469 2 77.7531 124.658 -5.55112e-17
470 2 25.8732 191.371 -5.55112e-17
471 2 43.613 149.245 -5.55112e-17
472 2 144.522 36.5386 -5.55112e-17
473 2 133.005 82.7018 -5.55112e-17
474 2 213.384 57.8184 -5.55112e-17
475 1 76.2459 18.5839 -5.55112e-17
476 2 42.5022 173.641 -5.55112e-17
477 1 113.614 196.927 -5.55112e-17
478 1 145.304 95.2032 -5.55112e-17
479 2 183.187 181.621 -5.55112e-17
480 1 201.01 32.2187 -5.55112e-17
481 1 30.5126 24.0257 -5.55112e-17
482 2 35.65 14.2549 -5.55112e-17
483 1 9.80252 26.4116 -5.55112e-17
484 1 52.1364 17.4059 -5.55112e-17
485 2 38.3162 55.6926 -5.55112e-17
486 1 43.646 212.688 -5.55112e-17
487 1 11.082 175.728 -5.55112e-17
488 1 214.248 91.1282 -5.55112e-17
489 1 142.543 10.4499 -5.55112e-17
490 1 205.933 48.1166 -5.55112e-17
491 1 27.8765 113.972 -5.55112e-17
492 2 107.032 178.079 -5.55112e-17
493 1 46.588 170.755 -5.55112e-17
494 2 157.887 92.6643 -5.55112e-17
495 1 176.359 189.025 -5.55112e-17
496 1 201.342 104.531 -5.55112e-17
497 1 181.691 56.4881 -5.55112e-17
498 2 94.026 186.244 -5.55112e-17
499 2 29.5376 159.712 -5.55112e-17
500 2 131.943 181.136 -5.55112e-17
501 2 174.909 78.0587 -5.55112e-17
502 2 60.244 52.0507 -5.55112e-17
503 2 144.652 64.7863 -5.55112e-17
504 2 123.097 40.3347 -5.55112e-17
505 2 24.2541 7.73557 -5.55112e-17
506 1 104.35 108.58 -5.55112e-17
507 2 105.737 202.537 -5.55112e-17
508 1 151.109 200.85 -5.55112e-17
509 1 185.428 82.6037 -5.55112e-17
510 1 202.752 60.8931 -5.55112e-17
511 2 147.323 26.1849 -5.55112e-17
512 1 198.624 207.931 -5.55112e-17
513 2 169.345 12.2841 -5.55112e-17
514 2 30.0727 2.74167 -5.55112e-17
515 1 155.226 45.965 -5.55112e-17
516 2 65.1105 165.233 -5.55112e-17
517 1 217.092 106.384 -5.55112e-17
518 2 195.618 142.344 -5.55112e-17
519 1 126.238 27.4983 -5.55112e-17
520 2 151.683 40.8863 -5.55112e-17
521 2 60.0388 123.382 -5.55112e-17
522 1 217.775 76.6349 -5.55112e-17
523 1 70.331 25.2648 -5.55112e-17
524 2 160.852 199.668 -5.55112e-17
525 2 160.366 91.8146 -5.55112e-17
526 2 157.389 16.3222 -5.55112e-17
527 1 208.68 118.747 -5.55112e-17
528 1 34.1467 59.7112 -5.55112e-17
529 2 108.051 175.051 -5.55112e-17
530 2 163.382 0.900706 -5.55112e-17
531 2 8.35993 179.975 -5.55112e-17
532 1 212.803 107.388 -5.55112e-17
533 2 117.811 72.0318 -5.55112e-17
534 1 207.409 120.831 -5.55112e-17
535 1 189.593 178.887 -5.55112e-17
536 2 179.085 99.6019 -5.55112e-17
537 1 207.538 159.224 -5.55112e-17
538 1 170.612 135.3 -5.55112e-17
539 2 217.207 160.942 -5.55112e-17
540 1 210.777 6.06814 -5.55112e-17
541 1 90.4811 161.59 -5.55112e-17
542 1 73.6134 95.9642 -5.55112e-17
543 2 124.243 14.7008 -5.55112e-17
544 1 104.033 42.0622 -5.55112e-17
545 1 145.539 173.599 -5.55112e-17
546 2 108.865 103.016 -5.55112e-17
547 1 17.2025 45.3773 -5.55112e-17
548 1 7.44103 148.527 -5.55112e-17
549 2 161.371 50.711 -5.55112e-17
550 2 128.692 101.321 -5.55112e-17
551 2 57.7505 180.035 -5.55112e-17
552 1 104.532 62.7582 -5.55112e-17
553 2 146.777 100.91 -5.55112e-17
554 2 197.704 164.674 -5.55112e-17
555 2 181.96 135.124 -5.55112e-17
556 1 203.482 171.281 -5.55112e-17
557 1 171.63 201.819 -5.55112e-17
558 1 96.8931 136.641 -5.55112e-17
559 2 54.4058 83.2935 -5.55112e-17
560 2 137.821 201.577 -5.55112e-17
561 2 154.815 159.277 -5.55112e-17
562 2 37.5388 133.939 -5.55112e-17
563 1 218.702 104.601 -5.55112e-17
564 2 41.2891 213.219 -5.55112e-17
565 2 11.8844 197.261 -5.55112e-17
566 2 192.823 204.726 -5.55112e-17
567 1 19.2267 107.214 -5.55112e-17
568 1 205.219 97.1425 -5.55112e-17
569 2 164.046 87.9362 -5.55112e-17
570 2 111.915 33.7341 -5.55112e-17
571 2 74.7305 5.86186 -5.55112e-17
572 1 218.832 71.8343 -5.55112e-17
573 2 137.37 144.933 -5.55112e-17
574 2 118.566 202.652 -5.55112e-17
575 1 206.488 8.48849 -5.55112e-17
576 1 217.111 208.726 -5.55112e-17
577 1 15.5937 121.662 -5.55112e-17
578 1 188.407 119.963 -5.55112e-17
579 2 68.3662 32.4653 -5.55112e-17
580 1 162.612 19.4644 -5.55112e-17
581 1 201.411 203.952 -5.55112e-17
582 2 161.035 113.23 -5.55112e-17
583 2 54.2084 183.609 -5.55112e-17
584 2 34.8597 1.6293 -5.55112e-17
585 1 97.5477 18.1023 -5.55112e-17
586 1 107.433 0.578728 -5.55112e-17
587 1 41.5936 75.2794 -5.55112e-17
588 2 195.064 163.234 -5.55112e-17
589 1 38.0233 194.984 -5.55112e-17
590 2 193.549 69.0937 -5.55112e-17
591 2 112.623 17.7149 -5.55112e-17
592 1 200.404 87.0193 -5.55112e-17
593 1 107.247 161.729 -5.55112e-17
594 1 53.2082 44.2624 -5.55112e-17
595 1 19.8789 170.965 -5.55112e-17
596 2 37.3415 98.6356 -5.55112e-17
597 2 212.52 184.218 -5.55112e-17
598 2 92.8603 36.4061 -5.55112e-17
599 2 70.0869 102.25 -5.55112e-17
600 2 35.1678 165.658 -5.55112e-17
601 1 180.238 25.6393 -5.55112e-17
602 1 111.417 203.111 -5.55112e-17
603 2 38.2037 117.987 -5.55112e-17
604 1 43.1575 18.3579 -5.55112e-17
605 2 121.951 16.7528 -5.55112e-17
606 2 109.814 35.5726 -5.55112e-17
607 2 0.0550607 210.664 -5.55112e-17
608 2 54.4499 140.868 -5.55112e-17
609 1 158.048 123.01 -5.55112e-17
610 2 118.043 212.349 -5.55112e-17
611 1 174.482 144.762 -5.55112e-17
612 1 149.546 157.131 -5.55112e-17
613 2 184.719 72.3585 -5.55112e-17
614 1 12.5169 125.112 -5.55112e-17
615 1 13.4348 214.853 -5.55112e-17
616 2 54.8713 31.8923 -5.55112e-17
617 1 183.138 13.3556 -5.55112e-17
618 1 142.434 41.1156 -5.55112e-17
619 1 184.82 0.248272 -5.55112e-17
620 2 187.385 73.6661 -5.55112e-17
621 2 181.136 36.7493 -5.55112e-17
622 2 119.688 26.3083 -5.55112e-17
623 2 126.189 83.8045 -5.55112e-17
624 1 130.725 150.124 -5.55112e-17
625 2 93.7624 118.107 -5.55112e-17
626 1 44.8966 184.8 -5.55112e-17
627 2 126.966 163.293 -5.55112e-17
628 1 102.664 113.625 -5.55112e-17
629 1 191.368 14.2215 -5.55112e-17
630 2 28.1594 4.86691 -5.55112e-17
631 2 57.5837 157.634 -5.55112e-17
632 2 91.4696 159.157 -5.55112e-17
633 2 107.381 140.697 -5.55112e-17
634 2 198.439 204.886 -5.55112e-17
635 2 150.371 38.1189 -5.55112e-17
636 1 213.545 60.4495 -5.55112e-17
637 1 131.87 21.4126 -5.55112e-17
638 1 70.8474 30.1156 -5.55112e-17
639 2 204.76 45.8414 -5.55112e-17
640 2 138.584 74.8413 -5.55112e-17
641 1 132.099 17.1818 -5.55112e-17
642 2 121.839 23.7649 -5.55112e-17
643 1 176.492 185.38 -5.55112e-17
644 2 123.743 163.185 -5.55112e-17
645 2 91.662 44.0053 -5.55112e-17
646 1 44.9044 16.4183 -5.55112e-17
647 2 29.3978 101.009 -5.55112e-17
648 2 16.8454 167.317 -5.55112e-17
649 1 173.91 118.991 -5.55112e-17
650 1 178.32 201.516 -5.55112e-17
651 1 193.816 130.341 -5.55112e-17
652 2 107.902 26.2895 -5.55112e-17
653 2 36.1075 27.7244 -5.55112e-17
654 1 134.919 10.8633 -5.55112e-17
655 1 176.405 45.0654 -5.55112e-17
656 1 141.839 64.7218 -5.55112e-17
657 1 14.6673 168.453 -5.55112e-17
658 2 180.359 179.413 -5.55112e-17
659 2 172.128 197.354 -5.55112e-17
660 1 82.7686 181.842 -5.55112e-17
661 2 88.7203 57.1147 -5.55112e-17
662 2 96.0394 113.375 -5.55112e-17
663 1 6.39206 79.5688 -5.55112e-17
664 1 204.592 146.096 -5.55112e-17
665 1 60.8629 150.652 -5.55112e-17
666 1 206.759 41.9535 -5.55112e-17
667 1 95.7838 7.10631 -5.55112e-17
668 1 68.0632 153.061 -5.55112e-17
669 1 66.2917 21.3261 -5.55112e-17
670 2 150.33 206.234 -5.55112e-17
671 1 25.6424 92.2373 -5.55112e-17
672 1 112.697 90.5783 -5.55112e-17
673 2 131.102 28.8759 -5.55112e-17
674 2 128.23 53.9231 -5.55112e-17
675 2 150.052 216.959 -5.55112e-17
676 1 204.683 181.065 -5.55112e-17
677 2 37.5739 183.6 -5.55112e-17
678 1 93.0498 100.487 -5.55112e-17
679 1 52.9758 48.7361 -5.55112e-17
680 2 205.742 65.5572 -5.55112e-17
681 1 203.068 103.146 -5.55112e-17
682 1 212.232 181.584 -5.55112e-17
683 2 114.291 179.36 -5.55112e-17
684 1 117.755 99.7432 -5.55112e-17
685 1 44.2954 175.666 -5.55112e-17
686 1 69.0602 18.1742 -5.55112e-17
687 1 75.2954 82.2783 -5.55112e-17
688 1 131.392 117.851 -5.55112e-17
689 2 84.3872 176.388 -5.55112e-17
690 1 39.5695 210.942 -5.55112e-17
691 2 163.71 144.01 -5.55112e-17
692 2 218.081 4.33743 -5.55112e-17
693 1 215.699 98.4875 -5.55112e-17
694 2 142.068 79.6254 -5.55112e-17
695 2 125.691 59.3199 -5.55112e-17
696 2 140.274 148.56 -5.55112e-17
697 1 48.6467 94.8293 -5.55112e-17
698 2 171.36 38.5655 -5.55112e-17
699 1 50.575 164.984 -5.55112e-17
700 2 120.957 141.987 -5.55112e-17
701 2 98.6879 198.448 -5.55112e-17
702 1 172.261 109.446 -5.55112e-17
703 1 5.76232 71.9563 -5.55112e-17
704 1 141.633 106.887 -5.55112e-17
705 1 112.907 109.578 -5.55112e-17
706 1 73.1833 112.616 -5.55112e-17
707 1 16.7469 186.753 -5.55112e-17
708 2 161.228 167.305 -5.55112e-17
709 1 136.628 69.7716 -5.55112e-17
710 2 85.6446 26.3644 -5.55112e-17
711 2 196.947 167.326 -5.55112e-17
712 1 33.2395 207.749 -5.55112e-17
713 1 199.988 99.4298 -5.55112e-17
714 2 69.5594 133.647 -5.55112e-17
715 2 19.7698 79.8795 -5.55112e-17
716 1 93.4156 191.803 -5.55112e-17
717 1 146.817 35.0959 -5.55112e-17
718 2 61.4571 87.398 -5.55112e-17
719 1 20.2553 201.416 -5.55112e-17
720 2 180.558 94.9034 -5.55112e-17
721 2 100.203 24.0262 -5.55112e-17
722 2 127.777 166.301 -5.55112e-17
723 2 20.18 161.545 -5.55112e-17
724 2 104.291 60.0598 -5.55112e-17
725 2 137.273 83.0496 -5.55112e-17
726 2 116.682 42.1867 -5.55112e-17
727 2 146.014 203.198 -5.55112e-17
728 1 133.094 9.35022 -5.55112e-17
729 2 126.422 158.472 -5.55112e-17
730 2 17.8936 184.25 -5.55112e-17
731 1 25.6189 94.6325 -5.55112e-17
732 2 59.4515 20.1064 -5.55112e-17
733 2 69.6178 160.346 -5.55112e-17
734 2 58.8421 54.7649 -5.55112e-17
735 2 187.546 188.992 -5.55112e-17
736 1 87.6116 83.0958 -5.55112e-17
737 2 165.556 125.193 -5.55112e-17
738 2 191.075 47.3752 -5.55112e-17
739 2 45.0419 92.1667 -5.55112e-17
740 2 76.1538 211.288 -5.55112e-17
741 2 53.4957 213.465 -5.55112e-17
742 1 52.2659 133.699 -5.55112e-17
743 2 56.8184 172.251 -5.55112e-17
744 1 85.3216 192.108 -5.55112e-17
745 2 217.866 213.364 -5.55112e-17
746 1 11.6917 118.614 -5.55112e-17
747 1 67.1411 37.6612 -5.55112e-17
748 2 31.0271 110.298 -5.55112e-17
749 1 28.0596 33.1675 -5.55112e-17
750 1 119.908 85.6508 -5.55112e-17
751 1 65.8189 57.0171 -5.55112e-17
752 2 35.824 196.283 -5.55112e-17
753 1 57.5572 115.666 -5.55112e-17
754 2 127.412 144.72 -5.55112e-17
755 1 188.881 137.1 -5.55112e-17
756 2 206.475 21.6359 -5.55112e-17
757 1 171.144 199.469 -5.55112e-17
758 2 80.1618 140.615 -5.55112e-17
759 1 142.976 119.263 -5.55112e-17
760 1 203.882 203.181 -5.55112e-17
761 2 212.495 161.973 -5.55112e-17
762 1 203.559 195.061 -5.55112e-17
763 2 122.953 143.768 -5.55112e-17
764 2 19.2364 68.0455 -5.55112e-17
765 1 192.057 126.235 -5.55112e-17
766 2 181.783 143.406 -5.55112e-17
767 2 84.2016 10.2699 -5.55112e-17
768 2 26.8753 106.165 -5.55112e-17
769 2 129.134 20.9821 -5.55112e-17
770 1 30.7234 167.664 -5.55112e-17
771 1 70.3798 181.593 -5.55112e-17
772 1 111.317 42.4902 -5.55112e-17
773 2 214.016 178.638 -5.55112e-17
774 1 49.2778 205.759 -5.55112e-17
775 1 29.2607 84.9867 -5.55112e-17
776 2 41.4002 82.2131 -5.55112e-17
777 2 100.185 76.9014 -5.55112e-17
778 1 72.8702 75.7939 -5.55112e-17
779 1 12.5815 148.108 -5.55112e-17
780 2 77.9414 182.593 -5.55112e-17
781 1 196.069 120.1 -5.55112e-17
782 2 2.62965 206.036 -5.55112e-17
783 1 160.418 35.6565 -5.55112e-17
784 2 191.465 28.6951 -5.55112e-17
785 1 179.666 82.7823 -5.55112e-17
786 1 112.47 70.9804 -5.55112e-17
787 2 122.212 127.334 -5.55112e-17
788 2 95.271 216.806 -5.55112e-17
789 2 112.653 140.993 -5.55112e-17
790 2 39.4766 22.5301 -5.55112e-17
791 2 114.056 146.694 -5.55112e-17
792 1 22.2871 129.496 -5.55112e-17
793 1 50.3765 191.739 -5.55112e-17
794 2 167.629 127.426 -5.55112e-17
795 2 96.872 91.3306 -5.55112e-17
796 1 77.8113 200.551 -5.55112e-17
797 1 113.815 77.5342 -5.55112e-17
798 1 200.641 164.479 -5.55112e-17
799 2 192.611 192.422 -5.55112e-17
800 1 103.292 217.199 -5.55112e-17
801 2 163.34 45.3177 -5.55112e-17
802 1 83.2748 4.40374 -5.55112e-17
803 1 184.596 107.818 -5.55112e-17
804 1 192.105 150.5 -5.55112e-17
805 2 36.0907 57.6492 -5.55112e-17
806 2 38.6876 206.117 -5.55112e-17
807 2 169.667 181.401 -5.55112e-17
808 2 157.946 118.414 -5.55112e-17
809 1 58.448 96.9001 -5.55112e-17
810 2 59.6898 172.8 -5.55112e-17
811 2 3.67792 202.98 -5.55112e-17
812 1 24.6532 122.344 -5.55112e-17
813 1 158.676 75.7227 -5.55112e-17
814 1 210.086 197.134 -5.55112e-17
815 1 161.825 43.042 -5.55112e-17
816 1 105.006 205.901 -5.55112e-17
817 2 159.207 110.459 -5.55112e-17
818 2 182.313 82.3844 -5.55112e-17
819 2 96.9386 122.209 -5.55112e-17
820 1 69.2067 7.29545 -5.55112e-17
821 1 177.829 162.235 -5.55112e-17
822 2 87.7694 141.515 -5.55112e-17
823 1 84.878 29.0052 -5.55112e-17
824 1 140.61 49.9361 -5.55112e-17
825 1 135.539 60.446 -5.55112e-17
826 2 182.172 205.021 -5.55112e-17
827 2 59.5484 3.7518 -5.55112e-17
828 1 131.9 44.7381 -5.55112e-17
829 2 168.841 130.354 -5.55112e-17
830 1 123.793 45.3517 -5.55112e-17
831 2 3.95862 168.434 -5.55112e-17
832 2 162.164 125.713 -5.55112e-17
833 2 89.3 177.18 -5.55112e-17
834 1 54.1538 5.75306 -5.55112e-17
835 1 125.29 142.95 -5.55112e-17
836 1 195.691 33.6923 -5.55112e-17
837 2 71.6278 69.48 -5.55112e-17
838 2 77.9442 6.04784 -5.55112e-17
839 1 4.76995 102.257 -5.55112e-17
840 2 5.20181 99.4682 -5.55112e-17
841 2 75.8698 138.17 -5.55112e-17
842 1 204.654 129.767 -5.55112e-17
843 1 124.834 210.652 -5.55112e-17
844 2 63.6454 216.024 -5.55112e-17
845 1 18.689 58.1567 -5.55112e-17
846 2 26.9341 89.3039 -5.55112e-17
847 1 193.5 76.623 -5.55112e-17
848 2 48.2963 165.445 -5.55112e-17
849 1 134.376 32.5306 -5.55112e-17
850 2 38.523 14.8183 -5.55112e-17
851 2 94.7825 182.833 -5.55112e-17
852 1 65.2415 159.369 -5.55112e-17
853 1 207.968 196.754 -5.55112e-17
854 2 216.116 20.7931 -5.55112e-17
855 2 110.774 125.516 -5.55112e-17
856 1 77.5499 59.0368 -5.55112e-17