ITEM: TIMESTEP
0
ITEM: NUMBER OF ATOMS
7200
ITEM: BOX BOUNDS xy xz yz pp pp pp
0.0000000000000000e+00 2.1900000000000000e+02 0.0000000000000000e+00
0.0000000000000000e+00 2.1900000000000000e+02 0.0000000000000000e+00
-3.6499999999999999e-01 3.6499999999999999e-01 0.0000000000000000e+00
ITEM: ATOMS id type x y z
1 1 201.338 161.778 -5.55112e-17
2 2 176.173 171.366 -5.55112e-17
3 2 107.891 146.169 -5.55112e-17
4 1 159.273 90.8422 -5.55112e-17
5 1 39.1478 109.681 -5.55112e-17
6 1 56.8552 166.267 -5.55112e-17
7 2 0.922117 175.191 -5.55112e-17
8 2 216.28 172.312 -5.55112e-17
9 1 182.779 165.919 -5.55112e-17
10 2 21.154 166.835 -5.55112e-17
11 2 199.657 203.74 -5.55112e-17
12 1 105.052 193.921 -5.55112e-17
13 2 208.772 59.0604 -5.55112e-17
14 1 136.219 93.1467 -5.55112e-17
15 2 101.779 153.563 -5.55112e-17
16 2 20.971 181.756 -5.55112e-17
17 1 59.8853 162.54 -5.55112e-17
18 2 215.024 142.63 -5.55112e-17
19 1 147.903 26.2711 -5.55112e-17
20 1 83.3703 146.409 -5.55112e-17
21 1 159.244 120.691 -5.55112e-17
22 2 73.3022 173.554 -5.55112e-17
23 2 93.8632 186.089 -5.55112e-17
24 2 2.00265 27.2782 -5.55112e-17
25 2 206.57 164.428 -5.55112e-17
26 2 198.211 48.369 -5.55112e-17
27 1 197.351 3.52959 -5.55112e-17
28 2 65.7175 29.1693 -5.55112e-17
29 2 93.4356 176.11 -5.55112e-17
30 2 104.679 99.5275 -5.55112e-17
31 2 138.875 1.57977 -5.55112e-17
32 1 29.0138 17.0698 -5.55112e-17
33 2 216.662 215.433 -5.55112e-17
34 2 40.0751 79.2082 -5.55112e-17
35 2 32.9681 120.694 -5.55112e-17
36 1 64.9681 126.297 -5.55112e-17
37 1 106.797 28.9627 -5.55112e-17
38 2 158.994 87.5584 -5.55112e-17
39 1 67.6342 109.812 -5.55112e-17
40 2 127.396 190.933 -5.55112e-17
41 1 79.4174 143.544 -5.55112e-17
42 1 18.2228 22.1825 -5.55112e-17
43 1 215.927 162.334 -5.55112e-17
44 1 99.0059 94.7098 -5.55112e-17
45 2 5.2798 77.744 -5.55112e-17
46 1 56.4101 196.973 -5.55112e-17
47 2 47.4121 22.3254 -5.55112e-17
48 2 122.573 206.978 -5.55112e-17
49 1 73.9146 57.5181 -5.55112e-17
50 2 1.93214 2.83861 -5.55112e-17
51 1 103.982 202.062 -5.55112e-17
52 1 95.3075 143.504 -5.55112e-17
53 2 195.616 92.3909 -5.55112e-17
54 1 150.569 41.5154 -5.55112e-17
55 2 29.4842 196.455 -5.55112e-17
56 1 134.277 116.204 -5.55112e-17
57 2 17.6797 173.588 -5.55112e-17
58 1 26.4948 72.705 -5.55112e-17
59 1 142.413 190.447 -5.55112e-17
60 2 114.041 2.56385 -5.55112e-17
61 1 102.864 212.813 -5.55112e-17
62 1 74.571 218.631 -5.55112e-17
63 2 119.72 201.283 -5.55112e-17
64 1 5.79356 85.5983 -5.55112e-17
65 2 195.366 151.709 -5.55112e-17
66 2 192.19 83.2253 -5.55112e-17
67 2 14.8056 8.77645 -5.55112e-17
68 1 207.375 41.1207 -5.55112e-17
69 2 140.043 25.9806 -5.55112e-17
70 1 111.674 113.831 -5.55112e-17
71 1 77.7816 111.757 -5.55112e-17
72 2 105.58 212.203 -5.55112e-17
73 2 162.155 32.0879 -5.55112e-17
74 2 202.186 194.578 -5.55112e-17
75 1 160.753 167.341 -5.55112e-17
76 2 214.119 124.355 -5.55112e-17
77 2 96.0656 94.1974 -5.55112e-17
78 1 6.45662 100.834 -5.55112e-17
79 2 138.063 91.503 -5.55112e-17
80 1 38.2617 122.542 -5.55112e-17
81 1 125.098 137.955 -5.55112e-17
82 1 164.958 80.2389 -5.55112e-17
83 1 208.819 106.784 -5.55112e-17
84 2 172.653 95.0297 -5.55112e-17
85 2 162.669 172.014 -5.55112e-17
86 2 134.157 172.736 -5.55112e-17
87 2 140.688 114.363 -5.55112e-17
88 1 130.876 7.06877 -5.55112e-17
89 2 121.306 155.37 -5.55112e-17
90 2 189.875 209.261 -5.55112e-17
91 2 156.61 149.875 -5.55112e-17
92 1 133.758 203.315 -5.55112e-17
93 2 112.665 200.427 -5.55112e-17
94 2 1.44901 56.0925 -5.55112e-17
95 1 168.325 54.6334 -5.55112e-17
96 2 206.815 22.4449 -5.55112e-17
97 2 107.157 46.111 -5.55112e-17
98 2 89.5886 205.093 -5.55112e-17
99 1 214.107 67.1783 -5.55112e-17
100 2 212.548 213.609 -5.55112e-17
101 1 200.267 69.1858 -5.55112e-17
102 1 28.4622 214.019 -5.55112e-17
103 2 202.175 77.9426 -5.55112e-17
104 2 198.498 171.762 -5.55112e-17
105 1 73.8244 99.5324 -5.55112e-17
106 1 133.273 154.804 -5.55112e-17
107 1 172.866 12.4681 -5.55112e-17
108 1 84.4084 81.0547 -5.55112e-17
109 2 156.245 125.479 -5.55112e-17
110 2 105.878 113.194 -5.55112e-17
111 1 107.381 77.4166 -5.55112e-17
112 2 125.469 59.7109 -5.55112e-17
113 1 65.3751 123.401 -5.55112e-17
114 1 135.43 7.55621 -5.55112e-17
115 2 42.5641 3.60197 -5.55112e-17
116 2 51.9955 45.8423 -5.55112e-17
117 1 101.695 69.1009 -5.55112e-17
118 1 134.739 3.133 -5.55112e-17
119 2 106.137 5.27328 -5.55112e-17
120 2 112.507 174.647 -5.55112e-17
121 1 105.032 178.049 -5.55112e-17
122 2 161.736 121.353 -5.55112e-17
123 2 9.04752 57.8938 -5.55112e-17
124 1 178.48 210.223 -5.55112e-17
125 1 12.3577 122.57 -5.55112e-17
126 2 75.2787 3.8421 -5.55112e-17
127 2 159.714 70.7794 -5.55112e-17
128 1 102.347 14.7584 -5.55112e-17
129 1 39.619 89.758 -5.55112e-17
130 2 179.33 139.266 -5.55112e-17
131 1 45.3001 45.1316 -5.55112e-17
132 1 167.804 204.903 -5.55112e-17
133 1 204.186 86.4466 -5.55112e-17
134 1 24.8941 122.104 -5.55112e-17
135 2 183.23 31.6136 -5.55112e-17
136 1 217.779 45.5284 -5.55112e-17
137 1 112.059 42.1179 -5.55112e-17
138 2 86.8942 77.0578 -5.55112e-17
139 1 15.2644 208.565 -5.55112e-17
140 1 70.5552 30.2469 -5.55112e-17
141 1 99.1983 190.613 -5.55112e-17
142 1 202.287 115.629 -5.55112e-17
143 1 49.1132 1.27236 -5.55112e-17
144 1 155.722 103.594 -5.55112e-17
145 2 13.435 190.605 -5.55112e-17
146 1 16.2426 136.726 -5.55112e-17
147 2 29.8419 7.22346 -5.55112e-17
148 1 83.7858 209.513 -5.55112e-17
149 1 19.2828 164.64 -5.55112e-17
150 2 139.107 68.885 -5.55112e-17
151 1 98.4401 192.735 -5.55112e-17
152 1 199.705 7.96622 -5.55112e-17
153 2 112.704 126.828 -5.55112e-17
154 1 167.121 110.927 -5.55112e-17
155 2 121.493 105.315 -5.55112e-17
156 2 117.32 42.945 -5.55112e-17
157 2 153.316 102.608 -5.55112e-17
158 2 191.141 130.12 -5.55112e-17
159 2 132.918 100.563 -5.55112e-17
160 2 38.4262 169.446 -5.55112e-17
161 2 10.8062 23.7694 -5.55112e-17
162 1 104.043 16.5854 -5.55112e-17
163 1 4.39846 7.54503 -5.55112e-17
164 2 149.998 27.7388 -5.55112e-17
165 1 53.5999 3.58811 -5.55112e-17
166 2 150.133 197.609 -5.55112e-17
167 1 74.3453 51.0525 -5.55112e-17
168 1 95.2423 96.7391 -5.55112e-17
169 2 79.6492 193.489 -5.55112e-17
170 1 53.2894 63.3286 -5.55112e-17
171 1 206.974 175.683 -5.55112e-17
172 1 217.134 78.9554 -5.55112e-17
173 1 65.1698 176.851 -5.55112e-17
174 2 61.15 9.99684 -5.55112e-17
175 2 74.1537 154.388 -5.55112e-17
176 1 141.882 159.277 -5.55112e-17
177 2 60.6834 92.3025 -5.55112e-17
178 1 118.344 79.8901 -5.55112e-17
179 2 70.5028 109.397 -5.55112e-17
180 1 122.506 85.018 -5.55112e-17
181 1 119.429 153.594 -5.55112e-17
182 1 41.2405 169.539 -5.55112e-17
183 1 18.6056 66.1565 -5.55112e-17
184 2 53.7382 158.824 -5.55112e-17
185 2 159.99 107.46 -5.55112e-17
186 2 58.2917 69.7388 -5.55112e-17
187 2 16.9731 122.816 -5.55112e-17
188 2 9.9516 105.76 -5.55112e-17
189 1 72.4309 61.2584 -5.55112e-17
190 1 194.372 200.988 -5.55112e-17
191 2 91.1544 96.6571 -5.55112e-17
192 2 70.0458 188.469 -5.55112e-17
193 1 83.6752 150.246 -5.55112e-17
194 1 92.8241 73.183 -5.55112e-17
195 2 22.6607 138.09 -5.55112e-17
196 1 6.08875 170.671 -5.55112e-17
197 2 128.124 175.91 -5.55112e-17
198 2 47.7094 130.48 -5.55112e-17
199 2 9.07176 155.617 -5.55112e-17
200 2 172.838 74.6504 -5.55112e-17
201 2 66.032 186.418 -5.55112e-17
202 1 155.628 116.403 -5.55112e-17
203 1 141.743 83.5234 -5.55112e-17
204 2 198.182 90.8451 -5.55112e-17
205 2 112.217 79.509 -5.55112e-17
206 2 114.916 32.834 -5.55112e-17
207 1 12.8777 112.913 -5.55112e-17
208 2 45.415 73.6267 -5.55112e-17
209 2 6.71479 150.78 -5.55112e-17
210 1 140.713 207.829 -5.55112e-17
211 1 137.319 75.4175 -5.55112e-17
212 1 110.788 26.1744 -5.55112e-17
213 1 83.3546 213.763 -5.55112e-17
214 2 159.031 134.58 -5.55112e-17
215 1 121.28 152.196 -5.55112e-17
216 1 28.5675 205.789 -5.55112e-17
217 1 151.522 4.54038 -5.55112e-17
218 2 39.5558 143.717 -5.55112e-17
219 2 33.6294 192.514 -5.55112e-17
220 1 207.558 153.811 -5.55112e-17
221 2 14.8279 126.991 -5.55112e-17
222 1 78.9567 56.4523 -5.55112e-17
223 1 62.7471 42.1307 -5.55112e-17
224 2 4.08332 64.1236 -5.55112e-17
225 2 60.1475 30.2754 -5.55112e-17
226 1 83.7851 9.86943 -5.55112e-17
227 2 51.7716 65.5062 -5.55112e-17
228 2 103.234 164.996 -5.55112e-17
229 1 90.0033 197.358 -5.55112e-17
230 1 76.8314 143.488 -5.55112e-17
231 2 196.5 166.953 -5.55112e-17
232 1 12.4014 18.0035 -5.55112e-17
233 2 48.2366 193.197 -5.55112e-17
234 1 194.27 168.54 -5.55112e-17
235 1 84.2595 72.6717 -5.55112e-17
236 2 29.2632 36.9539 -5.55112e-17
237 2 31.192 58.0368 -5.55112e-17
238 2 136.992 176.842 -5.55112e-17
239 1 26.5136 43.628 -5.55112e-17
240 1 15.8383 16.2918 -5.55112e-17
241 2 82.0798 47.2716 -5.55112e-17
242 1 122.65 123.904 -5.55112e-17
243 2 67.5059 75.6093 -5.55112e-17
244 2 180.964 136.718 -5.55112e-17
245 1 81.456 168.557 -5.55112e-17
246 2 61.8714 118.715 -5.55112e-17
247 2 213.661 12.3502 -5.55112e-17
248 1 161.661 1.55704 -5.55112e-17
249 1 122.539 43.6564 -5.55112e-17
250 1 130.153 95.6955 -5.55112e-17
251 2 122.557 121.287 -5.55112e-17
252 1 180.547 108.027 -5.55112e-17
253 2 4.04382 114.527 -5.55112e-17
254 2 126.457 37.8999 -5.55112e-17
255 2 70.2374 43.0207 -5.55112e-17
256 1 112.234 47.6008 -5.55112e-17
257 2 64.3501 50.6087 -5.55112e-17
258 1 98.828 170.702 -5.55112e-17
259 2 145.958 215.795 -5.55112e-17
260 1 58.6495 197.69 -5.55112e-17
261 2 0.916603 39.7281 -5.55112e-17
262 2 138.463 131.299 -5.55112e-17
263 2 53.7563 60.7789 -5.55112e-17
264 1 33.7152 30.5024 -5.55112e-17
265 1 123.859 29.4101 -5.55112e-17
266 1 138.144 16.264 -5.55112e-17
267 2 140.855 45.8828 -5.55112e-17
268 1 101.325 197.046 -5.55112e-17
269 2 151.627 182.499 -5.55112e-17
270 2 92.2982 191.719 -5.55112e-17
271 2 166.376 56.4958 -5.55112e-17
272 1 88.5219 117.603 -5.55112e-17
273 1 43.0763 99.2985 -5.55112e-17
274 1 123.185 118.577 -5.55112e-17
275 1 176.433 206.644 -5.55112e-17
276 1 158.141 83.2574 -5.55112e-17
277 1 142.688 25.4141 -5.55112e-17
278 2 176.858 190.066 -5.55112e-17
279 2 14.7379 70.2839 -5.55112e-17
280 1 13.4042 23.4837 -5.55112e-17
281 2 15.9509 168.761 -5.55112e-17
282 2 144.884 143.225 -5.55112e-17
283 2 8.64803 139.493 -5.55112e-17
284 1 79.2469 210.944 -5.55112e-17
285 1 81.8979 157.075 -5.55112e-17
286 2 213.99 24.6878 -5.55112e-17
287 2 7.36639 124.331 -5.55112e-17
288 1 63.1786 178.436 -5.55112e-17
289 2 210.637 184.886 -5.55112e-17
290 1 176.148 184.289 -5.55112e-17
291 2 60.6974 40.5308 -5.55112e-17
292 1 19.659 205.629 -5.55112e-17
293 1 108.514 105.663 -5.55112e-17
294 1 112.744 87.548 -5.55112e-17
295 2 147.473 108.482 -5.55112e-17
296 1 184.554 175.34 -5.55112e-17
297 1 208.877 163.028 -5.55112e-17
298 2 107.301 209.362 -5.55112e-17
299 1 200.285 73.2194 -5.55112e-17
300 2 198.675 102.194 -5.55112e-17
301 2 199.567 195.933 -5.55112e-17
302 2 169.78 20.7968 -5.55112e-17
303 1 66.7256 204.777 -5.55112e-17
304 1 103.747 210.388 -5.55112e-17
305 1 32.257 163.806 -5.55112e-17
306 2 34.3139 148.639 -5.55112e-17
307 2 140.184 32.4007 -5.55112e-17
308 2 209.783 53.788 -5.55112e-17
309 1 187.139 209.586 -5.55112e-17
310 1 125.166 107.639 -5.55112e-17
311 1 16.6582 150.428 -5.55112e-17
312 2 153.032 147.465 -5.55112e-17
313 2 115.254 199.909 -5.55112e-17
314 1 59.6952 174.833 -5.55112e-17
315 2 96.1469 4.56559 -5.55112e-17
316 1 121.428 140.276 -5.55112e-17
317 1 178.282 108.217 -5.55112e-17
318 1 178.053 31.6977 -5.55112e-17
319 2 136.644 55.9704 -5.55112e-17
320 1 205.212 0.965919 -5.55112e-17
321 1 44.991 154.093 -5.55112e-17
322 1 43.2091 152.295 -5.55112e-17
323 2 190.737 216.186 -5.55112e-17
324 2 31.864 17.4858 -5.55112e-17
325 2 181.746 170.53 -5.55112e-17
326 1 101.713 16.9262 -5.55112e-17
327 1 205.527 144.995 -5.55112e-17
328 2 134.007 19.5647 -5.55112e-17
329 2 82.1792 211.319 -5.55112e-17
330 2 31.9239 187.43 -5.55112e-17
331 2 115.036 204.732 -5.55112e-17
332 2 209.381 117.869 -5.55112e-17
333 2 79.0347 167.716 -5.55112e-17
334 2 71.4594 203.324 -5.55112e-17
335 1 214.43 114.129 -5.55112e-17
336 2 180.356 41.4321 -5.55112e-17
337 2 199.228 198.677 -5.55112e-17
338 1 3.65113 204.023 -5.55112e-17
339 2 128.487 115.057 -5.55112e-17
340 2 213.459 108.787 -5.55112e-17
341 2 86.2043 110.071 -5.55112e-17
342 2 200.41 208.808 -5.55112e-17
343 2 175.952 69.8833 -5.55112e-17
344 1 94.6655 23.1579 -5.55112e-17
345 2 8.51642 90.6364 -5.55112e-17
346 2 46.6702 202.557 -5.55112e-17
347 1 123.648 114.633 -5.55112e-17
348 1 41.803 1.24034 -5.55112e-17
349 2 143.328 136.202 -5.55112e-17
350 2 167.191 38.4138 -5.55112e-17
351 1 42.2511 143.703 -5.55112e-17
352 1 150.706 83.5004 -5.55112e-17
353 2 49.6335 185.569 -5.55112e-17
354 2 104.736 13.8562 -5.55112e-17
355 1 31.0524 93.8216 -5.55112e-17
356 2 145.173 33.7642 -5.55112e-17
357 1 67.8173 177.128 -5.55112e-17
358 1 205.084 212.102 -5.55112e-17
359 1 134.847 205.898 -5.55112e-17
360 1 110.295 110.902 -5.55112e-17
361 2 120.853 163.805 -5.55112e-17
362 2 157.991 170.661 -5.55112e-17
363 1 175.929 182.283 -5.55112e-17
364 2 116.981 57.875 -5.55112e-17
365 1 58.0715 5.24473 -5.55112e-17
366 1 211.686 24.576 -5.55112e-17
367 1 53.8926 204.289 -5.55112e-17
368 1 11.1057 55.9415 -5.55112e-17
369 2 207.034 156.448 -5.55112e-17
370 1 201.14 59.9036 -5.55112e-17
371 2 157.148 157.444 -5.55112e-17
372 1 118.854 66.2127 -5.55112e-17
373 2 6.12261 5.97903 -5.55112e-17
374 2 98.6447 150.047 -5.55112e-17
375 1 118.903 63.4632 -5.55112e-17
376 1 57.1548 181.805 -5.55112e-17
377 2 58.2353 79.2666 -5.55112e-17
378 2 108.196 85.5832 -5.55112e-17
379 2 180.168 126.125 -5.55112e-17
380 1 57.8172 130.703 -5.55112e-17
381 1 114.441 214.259 -5.55112e-17
382 1 173.283 217.797 -5.55112e-17
383 1 116.793 65.3217 -5.55112e-17
384 2 74.456 6.7858 -5.55112e-17
385 1 70.0863 45.7313 -5.55112e-17
386 2 189.052 108.97 -5.55112e-17
387 1 82.5879 106.343 -5.55112e-17
388 1 19.3061 41.6099 -5.55112e-17
389 2 218.635 71.0781 -5.55112e-17
390 1 1.88142 21.7933 -5.55112e-17
391 1 199.538 134.46 -5.55112e-17
392 2 109.072 103.115 -5.55112e-17
393 2 94.147 158.104 -5.55112e-17
394 1 4.0631 181.3 -5.55112e-17
395 1 164.232 138.835 -5.55112e-17
396 2 84.2375 173.655 -5.55112e-17
397 1 77.9037 13.6157 -5.55112e-17
398 2 167.38 117.944 -5.55112e-17
399 2 38.2166 141.23 -5.55112e-17
400 2 163.932 20.4408 -5.55112e-17
401 2 148.19 121.363 -5.55112e-17
402 1 27.2668 89.734 -5.55112e-17
403 1 206.837 146.916 -5.55112e-17
404 2 197.446 174.93 -5.55112e-17
405 1 211.965 202.201 -5.55112e-17
406 2 157.806 26.6787 -5.55112e-17
407 1 211.759 1.77227 -5.55112e-17
408 1 143.223 73.6765 -5.55112e-17
409 2 152.89 49.7149 -5.55112e-17
410 2 144.986 134.164 -5.55112e-17
411 1 139.326 199.665 -5.55112e-17
412 1 159.204 203.649 -5.55112e-17
413 1 42.4447 69.1659 -5.55112e-17
414 2 115.2 80.5772 -5.55112e-17
415 1 125.351 149.104 -5.55112e-17
416 1 38.6142 160.592 -5.55112e-17
417 2 193.505 216.817 -5.55112e-17
418 2 173.29 205.827 -5.55112e-17
419 2 102.181 12.0485 -5.55112e-17
420 2 46.5122 114.096 -5.55112e-17
421 1 6.75297 148.135 -5.55112e-17
422 1 114.955 87.4863 -5.55112e-17
423 2 177.101 105.402 -5.55112e-17
424 2 95.8775 102.804 -5.55112e-17
425 2 196.739 163.858 -5.55112e-17
426 1 72.5398 164.088 -5.55112e-17
427 2 5.92955 166.115 -5.55112e-17
428 1 95.511 9.69662 -5.55112e-17
429 2 89.4928 50.7734 -5.55112e-17
430 2 47.9049 196.076 -5.55112e-17
431 1 23.8853 33.8984 -5.55112e-17
432 2 129.341 180.449 -5.55112e-17
433 1 190.909 162.926 -5.55112e-17
434 1 187.134 218.458 -5.55112e-17
435 1 96.1121 125.383 -5.55112e-17
436 2 209.04 136.792 -5.55112e-17
437 2 149.221 69.8776 -5.55112e-17
438 2 11.2933 4.99328 -5.55112e-17
439 2 22.8291 108.114 -5.55112e-17
440 2 207.335 108.875 -5.55112e-17
441 1 72.671 44.4472 -5.55112e-17
442 1 150.068 109.264 -5.55112e-17
443 2 64.6266 40.3686 -5.55112e-17
444 1 213.123 85.2081 -5.55112e-17
445 1 163.461 184.692 -5.55112e-17
446 2 171.509 83.1953 -5.55112e-17
447 2 161.497 124.321 -5.55112e-17
448 2 155.359 132.643 -5.55112e-17
449 1 88.2034 207.563 -5.55112e-17
450 1 84.8249 66.9823 -5.55112e-17
451 1 196.709 11.017 -5.55112e-17
452 2 142.665 94.4956 -5.55112e-17
453 1 94.5324 122.048 -5.55112e-17
454 1 198.313 214.105 -5.55112e-17
455 2 75.0931 71.138 -5.55112e-17
456 1 124.614 84.3888 -5.55112e-17
457 2 106.277 93.6802 -5.55112e-17
458 2 15.8003 118.535 -5.55112e-17
459 2 63.9949 153.483 -5.55112e-17
460 1 156.258 176.229 -5.55112e-17
461 1 167.521 85.2581 -5.55112e-17
462 1 198.454 148.251 -5.55112e-17
463 2 68.767 167.576 -5.55112e-17
464 2 91.356 87.7104 -5.55112e-17
465 1 99.867 21.0535 -5.55112e-17
466 2 164.417 106.244 -5.55112e-17
467 2 125.944 8.85324 -5.55112e-17
468 2 177.087 141.377 -5.55112e-17
469 2 151.209 189.766 -5.55112e-17
470 2 111.907 52.6038 -5.55112e-17
471 2 27.7201 84.5208 -5.55112e-17
472 2 191.249 50.2033 -5.55112e-17
473 2 101.301 92.8158 -5.55112e-17
474 2 50.41 39.8099 -5.55112e-17
475 1 62.2139 182.844 -5.55112e-17
476 2 172.405 89.6278 -5.55112e-17
477 1 147.899 116.655 -5.55112e-17
478 1 62.7255 38.1549 -5.55112e-17
479 2 27.1194 67.8881 -5.55112e-17
480 1 210.463 29.3575 -5.55112e-17
481 1 61.8733 206.427 -5.55112e-17
482 2 199.131 10.4614 -5.55112e-17
483 1 101.279 189.664 -5.55112e-17
484 1 194.633 154.044 -5.55112e-17
485 2 0.726116 155.234 -5.55112e-17
486 1 19.1579 179.815 -5.55112e-17
487 1 207.19 70.7602 -5.55112e-17
488 1 70.5318 12.8705 -5.55112e-17
489 1 135.327 46.9684 -5.55112e-17
490 1 51.1304 8.12299 -5.55112e-17
491 1 186.596 161.205 -5.55112e-17
492 2 165.968 96.3563 -5.55112e-17
493 1 38.7645 199.095 -5.55112e-17
494 2 128.407 75.4716 -5.55112e-17
495 1 117.931 34.3403 -5.55112e-17
496 1 46.3552 165.719 -5.55112e-17
497 1 205.094 77.3103 -5.55112e-17
498 2 85.7907 88.0916 -5.55112e-17
499 2 82.4636 139.77 -5.55112e-17
500 2 167.035 16.5771 -5.55112e-17
501 2 185.381 150.235 -5.55112e-17
502 2 11.4732 20.7588 -5.55112e-17
503 2 123.655 57.7728 -5.55112e-17
504 2 88.2222 21.6655 -5.55112e-17
505 2 184.543 196.486 -5.55112e-17
506 1 92.755 173.64 -5.55112e-17
507 2 36.806 4.00141 -5.55112e-17
508 1 171.712 188.374 -5.55112e-17
509 1 181.746 153.155 -5.55112e-17
510 1 41.2162 19.0063 -5.55112e-17
511 2 184.57 106.303 -5.55112e-17
512 1 123.991 51.8542 -5.55112e-17
513 2 179.103 159.923 -5.55112e-17
514 2 23.106 94.0611 -5.55112e-17
515 1 31.0833 26.2866 -5.55112e-17
516 2 100.981 192.317 -5.55112e-17
517 1 38.4703 101.911 -5.55112e-17
518 2 130.992 140.938 -5.55112e-17
519 1 80.0325 13.105 -5.55112e-17
520 2 130.973 28.5786 -5.55112e-17
521 2 17.2144 7.05987 -5.55112e-17
522 1 117.635 107.128 -5.55112e-17
523 1 5.24676 36.906 -5.55112e-17
524 2 96.0046 136.658 -5.55112e-17
525 2 179.142 188.362 -5.55112e-17
526 2 12.4528 45.0157 -5.55112e-17
527 1 20.739 22.0994 -5.55112e-17
528 1 6.95019 211.513 -5.55112e-17
529 2 106.44 196.172 -5.55112e-17
530 2 200.288 110.653 -5.55112e-17
531 2 165.347 26.8201 -5.55112e-17
532 1 57.8052 207.02 -5.55112e-17
533 2 62.3241 94.6389 -5.55112e-17
534 1 68.7325 186.543 -5.55112e-17
535 1 68.7872 138.87 -5.55112e-17
536 2 171.354 139.988 -5.55112e-17
537 1 78.2486 0.550537 -5.55112e-17
538 1 114.554 30.6265 -5.55112e-17
539 2 31.4406 166.626 -5.55112e-17
540 1 1.82724 13.7249 -5.55112e-17
541 1 74.0773 206.181 -5.55112e-17
542 1 2.08551 189.168 -5.55112e-17
543 2 128.212 16.8741 -5.55112e-17
544 1 37.9149 75.8931 -5.55112e-17
545 1 74.5507 53.8771 -5.55112e-17
546 2 46.6251 168.359 -5.55112e-17
547 1 135.873 1.21657 -5.55112e-17
548 1 147.437 37.9003 -5.55112e-17
549 2 54.1844 0.765441 -5.55112e-17
550 2 112.505 100.903 -5.55112e-17
551 2 163.41 29.1809 -5.55112e-17
552 1 100.342 135.253 -5.55112e-17
553 2 17.8199 120.071 -5.55112e-17
554 2 135.097 181.404 -5.55112e-17
555 2 52.1213 107.415 -5.55112e-17
556 1 172.272 129.34 -5.55112e-17
557 1 103.44 158.821 -5.55112e-17
558 1 78.9146 165.132 -5.55112e-17
559 2 103.727 161.6 -5.55112e-17
560 2 121.731 67.1316 -5.55112e-17
561 2 101.075 163.259 -5.55112e-17
562 2 80.5165 87.8656 -5.55112e-17
563 1 143.725 6.16204 -5.55112e-17
564 2 134.367 128.349 -5.55112e-17
565 2 97.5555 217.362 -5.55112e-17
566 2 114.787 46.9571 -5.55112e-17
567 1 13.3792 210.62 -5.55112e-17
568 1 161.105 96.259 -5.55112e-17
569 2 67.8548 122.039 -5.55112e-17
570 2 174.053 210.951 -5.55112e-17
571 2 38.9042 1.49706 -5.55112e-17
572 1 44.4866 136.867 -5.55112e-17
573 2 100.621 166.392 -5.55112e-17
574 2 65.1993 36.9898 -5.55112e-17
575 1 161.807 34.6093 -5.55112e-17
576 1 150.162 205.143 -5.55112e-17
577 1 143.53 53.0124 -5.55112e-17
578 1 28.2493 172.431 -5.55112e-17
579 2 114.498 64.743 -5.55112e-17
580 1 65.4109 52.7569 -5.55112e-17
581 1 120.905 18.2303 -5.55112e-17
582 2 55.6399 130.739 -5.55112e-17
583 2 50.9101 99.3902 -5.55112e-17
584 2 108.886 217.486 -5.55112e-17
585 1 195.536 119.536 -5.55112e-17
586 1 42.5514 48.9728 -5.55112e-17
587 1 122.461 20.0851 -5.55112e-17
588 2 201.764 200.333 -5.55112e-17
589 1 211.185 99.7633 -5.55112e-17
590 2 62.44 150.896 -5.55112e-17
591 2 119.492 207.084 -5.55112e-17
592 1 82.9984 102.165 -5.55112e-17
593 1 2.49419 152.984 -5.55112e-17
594 1 32.6433 67.8917 -5.55112e-17
595 1 62.4156 133.284 -5.55112e-17
596 2 17.3559 127.839 -5.55112e-17
597 2 101.309 36.3161 -5.55112e-17
598 2 145.792 155.325 -5.55112e-17
599 2 116.302 9.82812 -5.55112e-17
600 2 117.953 136.544 -5.55112e-17
601 1 160.607 191.229 -5.55112e-17
602 1 205.356 159.03 -5.55112e-17
603 2 165.195 99.8269 -5.55112e-17
604 1 209.525 32.216 -5.55112e-17
605 2 173.674 114.887 -5.55112e-17
606 2 11.3268 37.2033 -5.55112e-17
607 2 170.427 67.7262 -5.55112e-17
608 2 175.372 78.5746 -5.55112e-17
609 1 173.414 54.0905 -5.55112e-17
610 2 89.7866 129.247 -5.55112e-17
611 1 157.314 7.22344 -5.55112e-17
612 1 211.993 133.155 -5.55112e-17
613 2 139.378 29.0596 -5.55112e-17
614 1 106.116 120.465 -5.55112e-17
615 1 123.805 214.766 -5.55112e-17
616 2 102.316 74.03 -5.55112e-17
617 1 216.539 144.851 -5.55112e-17
618 1 128.566 83.5692 -5.55112e-17
619 1 17.5856 196.11 -5.55112e-17
620 2 75.1279 68.2487 -5.55112e-17
621 2 120.43 178.469 -5.55112e-17
622 2 3.28696 84.5421 -5.55112e-17
623 2 76.604 156.885 -5.55112e-17
624 1 1.62068 129.884 -5.55112e-17
625 2 48.7809 30.3298 -5.55112e-17
626 1 41.4042 95.8939 -5.55112e-17
627 2 46.5714 185.929 -5.55112e-17
628 1 193.027 55.3162 -5.55112e-17
629 1 1.03525 184.304 -5.55112e-17
630 2 202.088 5.7898 -5.55112e-17
631 2 108.835 157.7 -5.55112e-17
632 2 56.4852 204.413 -5.55112e-17
633 2 155.488 171.304 -5.55112e-17
634 2 7.03553 87.711 -5.55112e-17
635 2 83.7279 75.5206 -5.55112e-17
636 1 130.006 58.1126 -5.55112e-17
637 1 140.072 172.492 -5.55112e-17
638 1 73.6506 194.856 -5.55112e-17
639 2 207.55 144.248 -5.55112e-17
640 2 195.813 46.9168 -5.55112e-17
641 1 165.501 134.649 -5.55112e-17
642 2 53.0355 193.757 -5.55112e-17
643 1 34.8002 210.621 -5.55112e-17
644 2 109.38 29.4439 -5.55112e-17
645 2 169.313 175.029 -5.55112e-17
646 1 89.0482 126.385 -5.55112e-17
647 2 169.546 1.5627 -5.55112e-17
648 2 159.755 113.335 -5.55112e-17
649 1 46.7709 156.512 -5.55112e-17
650 1 59.749 107.739 -5.55112e-17
651 1 130.422 20.3713 -5.55112e-17
652 2 183.821 85.3791 -5.55112e-17
653 2 174.238 141.024 -5.55112e-17
654 1 187.527 181.801 -5.55112e-17
655 1 181.408 43.6971 -5.55112e-17
656 1 140.134 116.853 -5.55112e-17
657 1 147.602 33.8344 -5.55112e-17
658 2 193.956 190.142 -5.55112e-17
659 2 118.183 61.0256 -5.55112e-17
660 1 157.677 162.718 -5.55112e-17
661 2 88.9449 169.66 -5.55112e-17
662 2 205.23 206.951 -5.55112e-17
663 1 205.143 31.1806 -5.55112e-17
664 1 96.9193 11.4455 -5.55112e-17
665 1 128.903 36.9115 -5.55112e-17
666 1 128.446 60.1884 -5.55112e-17
667 1 167.146 68.3239 -5.55112e-17
668 1 65.0338 89.8216 -5.55112e-17
669 1 189.845 81.8619 -5.55112e-17
670 2 62.1638 65.3578 -5.55112e-17
671 1 47.0438 2.65877 -5.55112e-17
672 1 69.2737 204.347 -5.55112e-17
673 2 36.2446 11.5859 -5.55112e-17
674 2 128.816 198.194 -5.55112e-17
675 2 179.713 146.795 -5.55112e-17
676 1 201.792 42.793 -5.55112e-17
677 2 111.402 61.7342 -5.55112e-17
678 1 85.1929 139.693 -5.55112e-17
679 1 176.843 176.705 -5.55112e-17
680 2 199.086 129.241 -5.55112e-17
681 1 102.424 177.681 -5.55112e-17
682 1 99.2173 201.123 -5.55112e-17
683 2 115.022 144.531 -5.55112e-17
684 1 82.0273 92.1537 -5.55112e-17
685 1 37.0554 148.493 -5.55112e-17
686 1 25.7285 70.1605 -5.55112e-17
687 1 16.38 54.1656 -5.55112e-17
688 1 8.52152 209.085 -5.55112e-17
689 2 173.951 58.5192 -5.55112e-17
690 1 18.548 106.098 -5.55112e-17
691 2 185.62 207.875 -5.55112e-17
692 2 41.5496 108.355 -5.55112e-17
693 1 95.1693 140.841 -5.55112e-17
694 2 175.126 119.933 -5.55112e-17
695 2 199.923 176.038 -5.55112e-17
696 2 79.7741 131.788 -5.55112e-17
697 1 21.8476 39.2154 -5.55112e-17
698 2 191.23 211.813 -5.55112e-17
699 1 67.0646 160.346 -5.55112e-17
700 2 171.882 172.584 -5.55112e-17
701 2 96.8855 202.545 -5.55112e-17
702 1 176.009 37.3484 -5.55112e-17
703 1 9.6184 77.4553 -5.55112e-17
704 1 38.8139 173.902 -5.55112e-17
705 1 40.4208 47.0433 -5.55112e-17
706 1 134.819 111.515 -5.55112e-17
707 1 63.0059 29.3461 -5.55112e-17
708 2 65.8667 136.755 -5.55112e-17
709 1 102.725 28.4302 -5.55112e-17
710 2 52.0051 151.32 -5.55112e-17
711 2 203.618 44.3186 -5.55112e-17
712 1 31.4957 198.223 -5.55112e-17
713 1 165.402 8.2351 -5.55112e-17
714 2 152.71 6.69439 -5.55112e-17
715 2 183.562 97.128 -5.55112e-17
716 1 160.997 79.8367 -5.55112e-17
717 1 80.9538 120.584 -5.55112e-17
718 2 123.629 17.0453 -5.55112e-17
719 1 67.2441 38.7177 -5.55112e-17
720 2 115.784 188.243 -5.55112e-17
721 2 107.918 21.3127 -5.55112e-17
722 2 46.4543 87.6264 -5.55112e-17
723 2 8.57563 60.633 -5.55112e-17
724 2 28.7701 185.888 -5.55112e-17
725 2 90.2061 17.4494 -5.55112e-17
726 2 46.1737 110.347 -5.55112e-17
727 2 119.492 196.602 -5.55112e-17
728 1 78.628 155.284 -5.55112e-17
729 2 101.651 60.7457 -5.55112e-17
730 2 31.6246 101.779 -5.55112e-17
731 1 51.4152 96.8491 -5.55112e-17
732 2 116.165 164.494 -5.55112e-17
733 2 190.737 2.60602 -5.55112e-17
734 2 20.6931 81.2548 -5.55112e-17
735 2 181.764 159.193 -5.55112e-17
736 1 40.4806 127.126 -5.55112e-17
737 2 191.685 9.96991 -5.55112e-17
738 2 57.8355 88.1003 -5.55112e-17
739 2 61.8569 160.967 -5.55112e-17
740 2 179.371 91.7717 -5.55112e-17
741 2 113.917 17.9306 -5.55112e-17
742 1 189.975 185.07 -5.55112e-17
743 2 212.185 178.291 -5.55112e-17
744 1 81.884 77.4055 -5.55112e-17
745 2 60.7074 80.4478 -5.55112e-17
746 1 123.185 187.256 -5.55112e-17
747 1 47.8585 49.6833 -5.55112e-17
748 2 59.1128 165 -5.55112e-17
749 1 175.864 112.777 -5.55112e-17
750 1 197.744 41.3771 -5.55112e-17
751 1 62.4735 213.761 -5.55112e-17
752 2 31.0877 30.5446 -5.55112e-17
753 1 195.784 218.808 -5.55112e-17
754 2 16.2833 1.42278 -5.55112e-17
755 1 214.248 72.1672 -5.55112e-17
756 2 53.3691 68.1786 -5.55112e-17
757 1 211.29 161.999 -5.55112e-17
758 2 130.916 17.8912 -5.55112e-17
759 1 23.322 171.37 -5.55112e-17
760 1 50.5638 126.724 -5.55112e-17
761 2 156.988 20.1793 -5.55112e-17
762 1 44.4944 10.7571 -5.55112e-17
763 2 14.9977 44.1216 -5.55112e-17
764 2 192.71 177.515 -5.55112e-17
765 1 212.787 79.275 -5.55112e-17
766 2 135.121 90.7404 -5.55112e-17
767 2 24.0373 167.721 -5.55112e-17
768 2 213.383 195.172 -5.55112e-17
769 2 99.8178 99.1579 -5.55112e-17
770 1 85.0766 26.1812 -5.55112e-17
771 1 28.8475 183.236 -5.55112e-17
772 1 218.149 161.615 -5.55112e-17
773 2 33.9743 132.623 -5.55112e-17
774 1 99.5015 0.462153 -5.55112e-17
775 1 32.4705 63.5839 -5.55112e-17
776 2 99.9015 14.637 -5.55112e-17
777 2 204.499 70.9896 -5.55112e-17
778 1 111.804 64.2484 -5.55112e-17
779 1 36.4759 97.5362 -5.55112e-17
780 2 22.0364 120.156 -5.55112e-17
781 1 127.071 62.0832 -5.55112e-17
782 2 206.576 91.4662 -5.55112e-17
783 1 190.112 27.0448 -5.55112e-17
784 2 194.206 127.126 -5.55112e-17
785 1 182.248 150.824 -5.55112e-17
786 1 26.5024 185.194 -5.55112e-17
787 2 67.3595 134.035 -5.55112e-17
788 2 58.3449 14.7788 -5.55112e-17
789 2 181.134 36.5917 -5.55112e-17
790 2 144.786 12.6123 -5.55112e-17
791 2 94.1975 36.9935 -5.55112e-17
792 1 80.1352 61.0322 -5.55112e-17
793 1 137.115 3.45512 -5.55112e-17
794 2 62.7278 136.353 -5.55112e-17
795 2 191.467 37.3838 -5.55112e-17
796 1 92.2039 57.9628 -5.55112e-17
797 1 138.156 46.212 -5.55112e-17
798 1 53.4061 189.232 -5.55112e-17
799 2 116.594 213.002 -5.55112e-17
800 1 15.5776 143.596 -5.55112e-17
801 2 152.421 91.6945 -5.55112e-17
802 1 32.4948 7.49429 -5.55112e-17
803 1 184.927 218.326 -5.55112e-17
804 1 63.7828 110.189 -5.55112e-17
805 2 164.4 85.7969 -5.55112e-17
806 2 94.7812 50.6148 -5.55112e-17
807 2 140.651 81.099 -5.55112e-17
808 2 129.91 39.078 -5.55112e-17
809 1 29.5948 137.663 -5.55112e-17
810 2 83.761 49.7167 -5.55112e-17
811 2 32.8774 139.937 -5.55112e-17
812 1 43.3092 120.739 -5.55112e-17
813 1 124.108 10.6037 -5.55112e-17
814 1 99.5057 139.874 -5.55112e-17
815 1 4.36135 25.3392 -5.55112e-17
816 1 9.27292 68.656 -5.55112e-17
817 2 17.8151 27.2393 -5.55112e-17
818 2 77.8252 145.689 -5.55112e-17
819 2 209.035 125.834 -5.55112e-17
820 1 71.5209 181.004 -5.55112e-17
821 1 26.859 16.8929 -5.55112e-17
822 2 211.975 147.132 -5.55112e-17
823 1 32.8018 55.9092 -5.55112e-17
824 1 140.115 105.666 -5.55112e-17
825 1 176.441 99.7669 -5.55112e-17
826 2 70.4126 68.4797 -5.55112e-17
827 2 43.0458 190.462 -5.55112e-17
828 1 189.657 213.901 -5.55112e-17
829 2 25.0657 142.209 -5.55112e-17
830 1 44.9196 140.836 -5.55112e-17
831 2 82.4173 32.2137 -5.55112e-17
832 2 35.8466 1.17173 -5.55112e-17
833 2 97.8636 74.6638 -5.55112e-17
834 1 86.7967 16.4663 -5.55112e-17
835 1 155.709 11.2561 -5.55112e-17
836 1 56.1725 32.9546 -5.55112e-17
837 2 46.3258 120.226 -5.55112e-17
838 2 102.73 118.215 -5.55112e-17
839 1 77.6142 203.621 -5.55112e-17
840 2 155.064 38.5677 -5.55112e-17
841 2 22.0717 78.5043 -5.55112e-17
842 1 87.3791 130.976 -5.55112e-17
843 1 202.79 208.715 -5.55112e-17
844 2 163.775 64.4798 -5.55112e-17
845 1 76.0049 196.514 -5.55112e-17
846 2 12.3931 57.9824 -5.55112e-17
847 1 211.71 199.68 -5.55112e-17
848 2 11.156 192.452 -5.55112e-17
849 1 162.1 111.442 -5.55112e-17
850 2 37.3471 81.0585 -5.55112e-17
851 2 145.396 101.104 -5.55112e-17
852 1 149.559 149.538 -5.55112e-17
853 1 30.3928 63.1322 -5.55112e-17
854 2 55.853 113.961 -5.55112e-17
855 2 145.264 169.584 -5.55112e-17
856 1 150.425 74.397 -5.55112e-17