ITEM: TIMESTEP
0
ITEM: NUMBER OF ATOMS
7200
ITEM: BOX BOUNDS xy xz yz pp pp pp
0.0000000000000000e+00 2.1900000000000000e+02 0.0000000000000000e+00
0.0000000000000000e+00 2.1900000000000000e+02 0.0000000000000000e+00
-3.6499999999999999e-01 3.6499999999999999e-01 0.0000000000000000e+00
ITEM: ATOMS id type x y z
1 1 45.8275 193.379 -5.55112e-17
2 2 162.769 41.9896 -5.55112e-17
3 2 142.275 59.6067 -5.55112e-17
4 1 195.746 208.018 -5.55112e-17
5 1 91.2179 70.4803 -5.55112e-17
6 1 55.7014 213.073 -5.55112e-17
7 2 149.538 29.8074 -5.55112e-17
8 2 144.299 46.6117 -5.55112e-17
9 1 210.204 31.8671 -5.55112e-17
10 2 136.295 99.1553 -5.55112e-17
11 2 184.318 198.375 -5.55112e-17
12 1 153.791 81.4255 -5.55112e-17
13 2 127.278 153.118 -5.55112e-17
14 1 59.2097 180.039 -5.55112e-17
15 2 113.539 105.406 -5.55112e-17
16 2 23.2623 20.6462 -5.55112e-17
17 1 148.266 141.114 -5.55112e-17
18 2 132.121 22.3664 -5.55112e-17
19 1 46.9594 107.975 -5.55112e-17
20 1 159.511 15.3055 -5.55112e-17
21 1 42.2479 26.1118 -5.55112e-17
22 2 9.98886 144.204 -5.55112e-17
23 2 43.7894 191.423 -5.55112e-17
24 2 126.611 90.1062 -5.55112e-17
25 2 18.048 140.431 -5.55112e-17
26 2 121.817 184.741 -5.55112e-17
27 1 142.265 19.763 -5.55112e-17
28 2 133.287 44.947 -5.55112e-17
29 2 146.727 139.011 -5.55112e-17
30 2 218.74 157.218 -5.55112e-17
31 2 211.77 172.933 -5.55112e-17
32 1 85.7228 65.7933 -5.55112e-17
33 2 53.1156 190.413 -5.55112e-17
34 2 37.3465 27.0193 -5.55112e-17
35 2 6.77985 197.007 -5.55112e-17
36 1 179.535 104.775 -5.55112e-17
37 1 68.7921 179.792 -5.55112e-17
38 2 76.7766 6.71563 -5.55112e-17
39 1 190.111 88.3432 -5.55112e-17
40 2 201.905 41.5726 -5.55112e-17
41 1 23.8628 173.579 -5.55112e-17
42 1 74.6894 84.1211 -5.55112e-17
43 1 172.577 181.368 -5.55112e-17
44 1 143.242 49.204 -5.55112e-17
45 2 149.015 105.1 -5.55112e-17
46 1 141.645 76.5484 -5.55112e-17
47 2 156.378 214.149 -5.55112e-17
48 2 193.874 77.5109 -5.55112e-17
49 1 174.085 132.214 -5.55112e-17
50 2 14.0566 15.8549 -5.55112e-17
51 1 98.0458 198.77 -5.55112e-17
52 1 198.972 143.687 -5.55112e-17
53 2 9.77785 72.8768 -5.55112e-17
54 1 118.441 215.927 -5.55112e-17
55 2 179.939 76.7488 -5.55112e-17
56 1 45.5421 11.8834 -5.55112e-17
57 2 197.992 86.9705 -5.55112e-17
58 1 5.80511 216.811 -5.55112e-17
59 1 156.465 202.422 -5.55112e-17
60 2 212.371 94.2225 -5.55112e-17
61 1 2.46833 165.177 -5.55112e-17
62 1 45.5218 205.591 -5.55112e-17
63 2 98.9056 170.226 -5.55112e-17
64 1 29.619 114.077 -5.55112e-17
65 2 215.876 165.019 -5.55112e-17
66 2 84.9217 17.8752 -5.55112e-17
67 2 107.079 25.4436 -5.55112e-17
68 1 174.265 117.746 -5.55112e-17
69 2 216.097 76.7774 -5.55112e-17
70 1 188.607 131.716 -5.55112e-17
71 1 150.209 56.459 -5.55112e-17
72 2 203.961 215.353 -5.55112e-17
73 2 113.752 152.829 -5.55112e-17
74 2 154.536 98.548 -5.55112e-17
75 1 47.2163 165.209 -5.55112e-17
76 2 2.61106 125.22 -5.55112e-17
77 2 92.0711 33.6272 -5.55112e-17
78 1 215.846 107.706 -5.55112e-17
79 2 30.6502 184.524 -5.55112e-17
80 1 42.0837 213.062 -5.55112e-17
81 1 117.391 20.4003 -5.55112e-17
82 1 148.335 24.7057 -5.55112e-17
83 1 40.6324 153.515 -5.55112e-17
84 2 131.943 211.745 -5.55112e-17
85 2 165.224 210.802 -5.55112e-17
86 2 123.73 97.9659 -5.55112e-17
87 2 27.6187 89.4257 -5.55112e-17
88 1 160.005 130.083 -5.55112e-17
89 2 155.87 162.957 -5.55112e-17
90 2 12.226 38.1428 -5.55112e-17
91 2 210.879 203.122 -5.55112e-17
92 1 19.9618 31.6321 -5.55112e-17
93 2 184.149 73.4531 -5.55112e-17
94 2 32.7985 87.2471 -5.55112e-17
95 1 51.7081 71.2222 -5.55112e-17
96 2 6.53087 160.046 -5.55112e-17
97 2 62.5916 136.962 -5.55112e-17
98 2 73.932 108.609 -5.55112e-17
99 1 196.144 131.203 -5.55112e-17
100 2 124.855 155.071 -5.55112e-17
101 1 161.377 158.124 -5.55112e-17
102 1 162.527 209.71 -5.55112e-17
103 2 185.272 173.577 -5.55112e-17
104 2 11.2777 176.443 -5.55112e-17
105 1 86.57 63.2691 -5.55112e-17
106 1 131.95 218.135 -5.55112e-17
107 1 179.097 21.6835 -5.55112e-17
108 1 25.1148 120.053 -5.55112e-17
109 2 104.824 184.373 -5.55112e-17
110 2 173.048 18.1352 -5.55112e-17
111 1 58.8685 191.045 -5.55112e-17
112 2 113.327 100.45 -5.55112e-17
113 1 185.083 50.4627 -5.55112e-17
114 1 82.4072 141.575 -5.55112e-17
115 2 177.949 28.746 -5.55112e-17
116 2 189.018 71.0244 -5.55112e-17
117 1 151.79 200.304 -5.55112e-17
118 1 153.508 9.76415 -5.55112e-17
119 2 204.97 114.652 -5.55112e-17
120 2 216.261 67.8354 -5.55112e-17
121 1 65.6687 15.7474 -5.55112e-17
122 2 68.0822 114.727 -5.55112e-17
123 2 194.841 167.561 -5.55112e-17
124 1 197.557 30.5751 -5.55112e-17
125 1 112.222 34.9464 -5.55112e-17
126 2 51.7812 58.4985 -5.55112e-17
127 2 67.7052 152.983 -5.55112e-17
128 1 1.74262 19.0666 -5.55112e-17
129 1 172.515 141.332 -5.55112e-17
130 2 128.859 15.9505 -5.55112e-17
131 1 134.505 159.304 -5.55112e-17
132 1 130.448 141.555 -5.55112e-17
133 1 185.034 181.929 -5.55112e-17
134 1 190.861 30.0045 -5.55112e-17
135 2 157.764 190.976 -5.55112e-17
136 1 45.4291 142.088 -5.55112e-17
137 1 71.223 208.607 -5.55112e-17
138 2 86.6833 58.7263 -5.55112e-17
139 1 155.277 149.034 -5.55112e-17
140 1 180.691 1.11351 -5.55112e-17
141 1 28.1949 185.058 -5.55112e-17
142 1 92.7303 151.37 -5.55112e-17
143 1 185.509 170.962 -5.55112e-17
144 1 195.44 44.6164 -5.55112e-17
145 2 13.6488 9.76296 -5.55112e-17
146 1 141.344 33.9055 -5.55112e-17
147 2 172.027 46.2356 -5.55112e-17
148 1 146.374 92.9198 -5.55112e-17
149 1 67.7339 216.278 -5.55112e-17
150 2 128.091 94.8667 -5.55112e-17
151 1 116.495 145.574 -5.55112e-17
152 1 175.295 218.928 -5.55112e-17
153 2 52.0249 78.5783 -5.55112e-17
154 1 93.3311 146.569 -5.55112e-17
155 2 32.4568 69.477 -5.55112e-17
156 2 5.66898 199.433 -5.55112e-17
157 2 80.6059 162.326 -5.55112e-17
158 2 112.882 210.781 -5.55112e-17
159 2 94.4968 49.7851 -5.55112e-17
160 2 185.511 88.0944 -5.55112e-17
161 2 68.2939 51.7256 -5.55112e-17
162 1 128.944 78.2807 -5.55112e-17
163 1 22.7611 171.094 -5.55112e-17
164 2 15.3505 121.131 -5.55112e-17
165 1 123.93 80.2729 -5.55112e-17
166 2 19.7578 152.912 -5.55112e-17
167 1 175.998 171.087 -5.55112e-17
168 1 30.5863 14.7091 -5.55112e-17
169 2 189.199 134.42 -5.55112e-17
170 1 135.416 151.654 -5.55112e-17
171 1 215.745 88.0455 -5.55112e-17
172 1 179.955 175.457 -5.55112e-17
173 1 204.366 51.5603 -5.55112e-17
174 2 214.491 32.3585 -5.55112e-17
175 2 119.812 207.567 -5.55112e-17
176 1 43.9728 65.737 -5.55112e-17
177 2 135.895 33.1842 -5.55112e-17
178 1 21.6886 218.466 -5.55112e-17
179 2 127.43 28.4397 -5.55112e-17
180 1 178.086 94.8239 -5.55112e-17
181 1 93.994 180.441 -5.55112e-17
182 1 99.0094 174.815 -5.55112e-17
183 1 158.088 41.9388 -5.55112e-17
184 2 145.027 98.4556 -5.55112e-17
185 2 93.3185 96.6491 -5.55112e-17
186 2 111.547 119.399 -5.55112e-17
187 2 25.3956 171.532 -5.55112e-17
188 2 22.3488 180.133 -5.55112e-17
189 1 28.6072 138.792 -5.55112e-17
190 1 218.446 52.8628 -5.55112e-17
191 2 68.2916 76.6436 -5.55112e-17
192 2 107.721 217.968 -5.55112e-17
193 1 3.52071 9.6457 -5.55112e-17
194 1 85.2167 2.73748 -5.55112e-17
195 2 166.454 6.10571 -5.55112e-17
196 1 122.782 70.8304 -5.55112e-17
197 2 143.084 152.994 -5.55112e-17
198 2 89.9655 170.104 -5.55112e-17
199 2 98.9127 206.57 -5.55112e-17
200 2 58.2888 186.062 -5.55112e-17
201 2 12.0859 128.417 -5.55112e-17
202 1 64.1902 54.3965 -5.55112e-17
203 1 162.138 88.1191 -5.55112e-17
204 2 14.7033 139.83 -5.55112e-17
205 2 110.846 15.4351 -5.55112e-17
206 2 90.7814 122.666 -5.55112e-17
207 1 192.548 128.238 -5.55112e-17
208 2 190.875 101.495 -5.55112e-17
209 2 62.6881 214.082 -5.55112e-17
210 1 1.9779 127.383 -5.55112e-17
211 1 165.536 128.869 -5.55112e-17
212 1 44.6644 29.0239 -5.55112e-17
213 1 93.0738 132.475 -5.55112e-17
214 2 48.1083 54.1604 -5.55112e-17
215 1 107.721 188.505 -5.55112e-17
216 1 62.9949 211.599 -5.55112e-17
217 1 216.262 11.0968 -5.55112e-17
218 2 83.7591 33.8173 -5.55112e-17
219 2 200.393 127.322 -5.55112e-17
220 1 163.386 148.294 -5.55112e-17
221 2 152.721 213.738 -5.55112e-17
222 1 169.893 122.688 -5.55112e-17
223 1 166.633 101.966 -5.55112e-17
224 2 3.86963 17.0955 -5.55112e-17
225 2 11.2789 80.3305 -5.55112e-17
226 1 178.775 133.935 -5.55112e-17
227 2 173.049 205.888 -5.55112e-17
228 2 30.3797 210.253 -5.55112e-17
229 1 176.178 49.3889 -5.55112e-17
230 1 78.2883 140.831 -5.55112e-17
231 2 172.197 184.209 -5.55112e-17
232 1 107.8 28.1129 -5.55112e-17
233 2 93.0201 51.8696 -5.55112e-17
234 1 44.2758 63.4726 -5.55112e-17
235 1 201.03 179.432 -5.55112e-17
236 2 130.879 87.6965 -5.55112e-17
237 2 8.57886 82.3745 -5.55112e-17
238 2 46.8993 114.681 -5.55112e-17
239 1 94.8841 83.8441 -5.55112e-17
240 1 158.253 188.582 -5.55112e-17
241 2 211.567 107.658 -5.55112e-17
242 1 141.771 25.2235 -5.55112e-17
243 2 135.976 52.5456 -5.55112e-17
244 2 172.065 71.1702 -5.55112e-17
245 1 113.675 90.5142 -5.55112e-17
246 2 128.895 130.868 -5.55112e-17
247 2 162.568 206.888 -5.55112e-17
248 1 119.357 186.045 -5.55112e-17
249 1 19.7064 4.26556 -5.55112e-17
250 1 22.0307 187.708 -5.55112e-17
251 2 107.331 175.493 -5.55112e-17
252 1 215.319 138.641 -5.55112e-17
253 2 216.247 146.388 -5.55112e-17
254 2 13.4757 198.085 -5.55112e-17
255 2 203.425 128.064 -5.55112e-17
256 1 79.3046 166.528 -5.55112e-17
257 2 94.8869 152.912 -5.55112e-17
258 1 98.3824 45.5412 -5.55112e-17
259 2 32.1503 60.2587 -5.55112e-17
260 1 149.908 159.687 -5.55112e-17
261 2 58.0514 16.3608 -5.55112e-17
262 2 115.915 193.215 -5.55112e-17
263 2 144.189 101.765 -5.55112e-17
264 1 27.7177 14.4396 -5.55112e-17
265 1 179.079 100.157 -5.55112e-17
266 1 184.883 13.305 -5.55112e-17
267 2 115.352 150.97 -5.55112e-17
268 1 214.544 214.043 -5.55112e-17
269 2 206.534 24.5371 -5.55112e-17
270 2 51.8728 165.59 -5.55112e-17
271 2 145.286 211.686 -5.55112e-17
272 1 209.063 24.1075 -5.55112e-17
273 1 157.075 129.276 -5.55112e-17
274 1 38.7017 125.151 -5.55112e-17
275 1 110.475 192.886 -5.55112e-17
276 1 83.4407 149.567 -5.55112e-17
277 1 164.43 112.97 -5.55112e-17
278 2 182.781 163.729 -5.55112e-17
279 2 102.138 109.964 -5.55112e-17
280 1 70.4706 89.7845 -5.55112e-17
281 2 22.7567 132.946 -5.55112e-17
282 2 86.1288 5.15623 -5.55112e-17
283 2 160.433 211.657 -5.55112e-17
284 1 30.3105 157.278 -5.55112e-17
285 1 86.1129 190.131 -5.55112e-17
286 2 69.1571 99.3383 -5.55112e-17
287 2 198.005 154.487 -5.55112e-17
288 1 99.8458 100.026 -5.55112e-17
289 2 101.068 141.791 -5.55112e-17
290 1 191.766 96.807 -5.55112e-17
291 2 118.48 110.218 -5.55112e-17
292 1 45.8808 177.925 -5.55112e-17
293 1 8.43975 18.373 -5.55112e-17
294 1 9.10151 101.722 -5.55112e-17
295 2 181.867 155.627 -5.55112e-17
296 1 123.319 180.204 -5.55112e-17
297 1 84.6515 114.848 -5.55112e-17
298 2 155.266 110.672 -5.55112e-17
299 1 16.5675 123.653 -5.55112e-17
300 2 112.09 78.3203 -5.55112e-17
301 2 13.306 137.322 -5.55112e-17
302 2 42.2463 28.4749 -5.55112e-17
303 1 107.26 67.9741 -5.55112e-17
304 1 14.749 38.8788 -5.55112e-17
305 1 145.925 152.694 -5.55112e-17
306 2 138.181 215.264 -5.55112e-17
307 2 17.8224 214.137 -5.55112e-17
308 2 132.337 113.307 -5.55112e-17
309 1 15.3694 178.016 -5.55112e-17
310 1 49.3851 6.22168 -5.55112e-17
311 1 42.6574 105.758 -5.55112e-17
312 2 177.726 127.77 -5.55112e-17
313 2 143.612 160.938 -5.55112e-17
314 1 1.4608 89.0162 -5.55112e-17
315 2 38.8265 175.112 -5.55112e-17
316 1 14.8537 203.408 -5.55112e-17
317 1 38.4804 208.269 -5.55112e-17
318 1 165.67 121.67 -5.55112e-17
319 2 138.825 59.4751 -5.55112e-17
320 1 84.4737 27.5139 -5.55112e-17
321 1 144.854 28.5657 -5.55112e-17
322 1 174.481 36.2941 -5.55112e-17
323 2 163.85 126.433 -5.55112e-17
324 2 31.3658 75.0171 -5.55112e-17
325 2 82.806 184.744 -5.55112e-17
326 1 50.5403 207.726 -5.55112e-17
327 1 203.65 112.303 -5.55112e-17
328 2 208.811 168.091 -5.55112e-17
329 2 215.88 202.987 -5.55112e-17
330 2 82.4929 14.0321 -5.55112e-17
331 2 199.345 170.824 -5.55112e-17
332 2 123.58 50.8432 -5.55112e-17
333 2 195.748 18.1696 -5.55112e-17
334 2 205.39 180.111 -5.55112e-17
335 1 6.35778 57.0871 -5.55112e-17
336 2 138.565 201.28 -5.55112e-17
337 2 113.977 165.045 -5.55112e-17
338 1 71.7779 71.1681 -5.55112e-17
339 2 73.0422 189.768 -5.55112e-17
340 2 40.4691 149.002 -5.55112e-17
341 2 153.518 19.0216 -5.55112e-17
342 2 96.582 17.7755 -5.55112e-17
343 2 199.445 39.5843 -5.55112e-17
344 1 104.994 40.7199 -5.55112e-17
345 2 137.669 112.94 -5.55112e-17
346 2 136.308 5.84351 -5.55112e-17
347 1 66.5574 82.4839 -5.55112e-17
348 1 1.51456 184.722 -5.55112e-17
349 2 201.637 1.53115 -5.55112e-17
350 2 114.391 119.349 -5.55112e-17
351 1 89.1458 29.1173 -5.55112e-17
352 1 191.403 75.4877 -5.55112e-17
353 2 68.9117 84.3514 -5.55112e-17
354 2 178.053 124.737 -5.55112e-17
355 1 87.9078 74.8751 -5.55112e-17
356 2 49.5694 90.8848 -5.55112e-17
357 1 67.6261 73.9404 -5.55112e-17
358 1 84.35 51.2599 -5.55112e-17
359 1 4.04521 93.7322 -5.55112e-17
360 1 38.7249 190.661 -5.55112e-17
361 2 34.0293 205.043 -5.55112e-17
362 2 50.9537 138.528 -5.55112e-17
363 1 179.474 116.25 -5.55112e-17
364 2 75.449 49.0674 -5.55112e-17
365 1 171.376 99.8984 -5.55112e-17
366 1 64.4032 39.7208 -5.55112e-17
367 1 3.65106 19.9869 -5.55112e-17
368 1 169.536 90.4218 -5.55112e-17
369 2 14.3017 109.824 -5.55112e-17
370 1 99.6896 13.8908 -5.55112e-17
371 2 16.0774 149.046 -5.55112e-17
372 1 116.53 153.291 -5.55112e-17
373 2 70.6324 138.55 -5.55112e-17
374 2 169.85 201.868 -5.55112e-17
375 1 206.006 65.7699 -5.55112e-17
376 1 134.093 62.0526 -5.55112e-17
377 2 32.6685 38.6093 -5.55112e-17
378 2 193.231 25.6223 -5.55112e-17
379 2 11.4872 155.502 -5.55112e-17
380 1 212.045 30.7512 -5.55112e-17
381 1 150.59 146.503 -5.55112e-17
382 1 178.863 45.2008 -5.55112e-17
383 1 146.807 123.469 -5.55112e-17
384 2 9.33866 8.60588 -5.55112e-17
385 1 38.5816 119.776 -5.55112e-17
386 2 44.0503 127.108 -5.55112e-17
387 1 169.505 76.504 -5.55112e-17
388 1 24.8635 89.111 -5.55112e-17
389 2 183.917 148.545 -5.55112e-17
390 1 110.857 66.418 -5.55112e-17
391 1 126.048 187.891 -5.55112e-17
392 2 187.011 82.058 -5.55112e-17
393 2 149.68 181.632 -5.55112e-17
394 1 40.3999 6.52692 -5.55112e-17
395 1 143.282 185.619 -5.55112e-17
396 2 12.9619 143.963 -5.55112e-17
397 1 22.4487 8.86563 -5.55112e-17
398 2 193.816 117.251 -5.55112e-17
399 2 93.2601 18.3006 -5.55112e-17
400 2 147.66 81.1367 -5.55112e-17
401 2 40.679 166.388 -5.55112e-17
402 1 123.228 144.355 -5.55112e-17
403 1 49.7428 56.3871 -5.55112e-17
404 2 0.661644 31.9576 -5.55112e-17
405 1 83.8152 112.424 -5.55112e-17
406 2 165.831 35.0701 -5.55112e-17
407 1 82.9441 138.963 -5.55112e-17
408 1 147.437 98.1059 -5.55112e-17
409 2 116.452 210.936 -5.55112e-17
410 2 54.2681 127.492 -5.55112e-17
411 1 129.402 217.759 -5.55112e-17
412 1 73.8418 172.759 -5.55112e-17
413 1 34.9484 126.61 -5.55112e-17
414 2 131.86 84.8436 -5.55112e-17
415 1 108.421 47.0603 -5.55112e-17
416 1 64.6977 183.465 -5.55112e-17
417 2 85.2529 117.478 -5.55112e-17
418 2 112.256 126.932 -5.55112e-17
419 2 169.621 29.5214 -5.55112e-17
420 2 31.4817 143.081 -5.55112e-17
421 1 4.73611 164.744 -5.55112e-17
422 1 135.145 197.64 -5.55112e-17
423 2 152.345 205.482 -5.55112e-17
424 2 4.76045 12.1041 -5.55112e-17
425 2 162.368 47.6365 -5.55112e-17
426 1 129.165 54.2076 -5.55112e-17
427 2 179.656 112.989 -5.55112e-17
428 1 103.098 113.665 -5.55112e-17
429 2 59.8197 162.756 -5.55112e-17
430 2 110.107 73.3956 -5.55112e-17
431 1 83.8157 23.362 -5.55112e-17
432 2 60.7432 130.741 -5.55112e-17
433 1 20.6728 94.5015 -5.55112e-17
434 1 97.0262 217.153 -5.55112e-17
435 1 67.2368 46.7509 -5.55112e-17
436 2 81.3548 164.867 -5.55112e-17
437 2 43.2714 168.328 -5.55112e-17
438 2 169.781 64.9996 -5.55112e-17
439 2 115.577 203.698 -5.55112e-17
440 2 64.2472 202.264 -5.55112e-17
441 1 92.3495 74.99 -5.55112e-17
442 1 104.946 213.741 -5.55112e-17
443 2 144.833 166.652 -5.55112e-17
444 1 186.769 218.373 -5.55112e-17
445 1 68.2638 150.217 -5.55112e-17
446 2 149.754 89.8379 -5.55112e-17
447 2 15.6194 89.6113 -5.55112e-17
448 2 166.462 48.1167 -5.55112e-17
449 1 211.949 43.4428 -5.55112e-17
450 1 138.258 13.4624 -5.55112e-17
451 1 26.7078 169.098 -5.55112e-17
452 2 9.21282 66.6888 -5.55112e-17
453 1 12.2211 139.608 -5.55112e-17
454 1 94.23 192.652 -5.55112e-17
455 2 21.1883 193.11 -5.55112e-17
456 1 42.067 100.509 -5.55112e-17
457 2 126.34 129.085 -5.55112e-17
458 2 147.013 194.321 -5.55112e-17
459 2 144.813 199.356 -5.55112e-17
460 1 135.183 128.576 -5.55112e-17
461 1 104.534 109.998 -5.55112e-17
462 1 84.2668 197.626 -5.55112e-17
463 2 67.9031 14.2848 -5.55112e-17
464 2 84.0496 78.8995 -5.55112e-17
465 1 175.886 168.293 -5.55112e-17
466 2 118.458 113.217 -5.55112e-17
467 2 112.404 142.159 -5.55112e-17
468 2 39.9664 205.734 -5.55112e-17
469 2 150.849 52.0308 -5.55112e-17
470 2 53.4593 105.183 -5.55112e-17
471 2 72.2919 218.124 -5.55112e-17
472 2 87.8897 3.00401 -5.55112e-17
473 2 56.1346 190.118 -5.55112e-17
474 2 145.94 185.235 -5.55112e-17
475 1 69.5127 105.293 -5.55112e-17
476 2 30.1877 126.343 -5.55112e-17
477 1 20.4571 56.7686 -5.55112e-17
478 1 143.803 177.868 -5.55112e-17
479 2 57.8527 35.9795 -5.55112e-17
480 1 96.7789 106.148 -5.55112e-17
481 1 169.656 38.2993 -5.55112e-17
482 2 23.771 82.8612 -5.55112e-17
483 1 88.1845 65.2375 -5.55112e-17
484 1 179.586 70.0058 -5.55112e-17
485 2 188.496 41.0915 -5.55112e-17
486 1 164.989 8.51938 -5.55112e-17
487 1 4.2043 58.2722 -5.55112e-17
488 1 39.4729 200.476 -5.55112e-17
489 1 73.5414 67.5101 -5.55112e-17
490 1 89.8966 8.65161 -5.55112e-17
491 1 42.2212 71.9307 -5.55112e-17
492 2 191.543 123.984 -5.55112e-17
493 1 102.748 67.5463 -5.55112e-17
494 2 162.493 111.184 -5.55112e-17
495 1 81.9267 69.3686 -5.55112e-17
496 1 124.247 55.8482 -5.55112e-17
497 1 160.634 92.926 -5.55112e-17
498 2 3.64694 218.096 -5.55112e-17
499 2 93.263 195.228 -5.55112e-17
500 2 106.415 35.0123 -5.55112e-17
501 2 94.9201 144.706 -5.55112e-17
502 2 149.645 70.2879 -5.55112e-17
503 2 28.3659 208.55 -5.55112e-17
504 2 24.5825 3.38766 -5.55112e-17
505 2 101.679 105.224 -5.55112e-17
506 1 14.6909 161.509 -5.55112e-17
507 2 32.1754 138.761 -5.55112e-17
508 1 51.5796 46.5848 -5.55112e-17
509 1 204.279 160.588 -5.55112e-17
510 1 78.9542 119.058 -5.55112e-17
511 2 194.894 11.1382 -5.55112e-17
512 1 79.0529 193.518 -5.55112e-17
513 2 196.213 84.9071 -5.55112e-17
514 2 163.118 133.708 -5.55112e-17
515 1 37.058 114.792 -5.55112e-17
516 2 109.864 0.965585 -5.55112e-17
517 1 151.355 63.3008 -5.55112e-17
518 2 217.653 121.652 -5.55112e-17
519 1 135.291 214.512 -5.55112e-17
520 2 63.8359 99.8877 -5.55112e-17
521 2 201.474 118.628 -5.55112e-17
522 1 13.2097 96.0341 -5.55112e-17
523 1 46.4323 62.8289 -5.55112e-17
524 2 15.7556 0.412404 -5.55112e-17
525 2 133.488 110.467 -5.55112e-17
526 2 31.389 106.274 -5.55112e-17
527 1 25.1019 31.5011 -5.55112e-17
528 1 0.589778 21.4044 -5.55112e-17
529 2 90.4518 187.793 -5.55112e-17
530 2 181.978 63.5344 -5.55112e-17
531 2 151.081 8.53584 -5.55112e-17
532 1 99.4918 147.145 -5.55112e-17
533 2 33.8973 181.43 -5.55112e-17
534 1 194.507 124.2 -5.55112e-17
535 1 21.7053 154.894 -5.55112e-17
536 2 211.782 104.895 -5.55112e-17
537 1 127.828 31.1443 -5.55112e-17
538 1 33.4304 48.9809 -5.55112e-17
539 2 181.589 146.703 -5.55112e-17
540 1 6.93418 192.316 -5.55112e-17
541 1 22.2264 38.8033 -5.55112e-17
542 1 39.5404 185.937 -5.55112e-17
543 2 214.684 99.7311 -5.55112e-17
544 1 59.8758 88.0461 -5.55112e-17
545 1 102.442 27.4414 -5.55112e-17
546 2 209.005 106.641 -5.55112e-17
547 1 186.403 123.49 -5.55112e-17
548 1 154.802 173.489 -5.55112e-17
549 2 39.7418 72.7457 -5.55112e-17
550 2 95.8237 122.001 -5.55112e-17
551 2 84.5219 127.689 -5.55112e-17
552 1 128.048 63.044 -5.55112e-17
553 2 129.608 36.3606 -5.55112e-17
554 2 86.3154 70.3661 -5.55112e-17
555 2 60.8412 35.9245 -5.55112e-17
556 1 164.652 63.1601 -5.55112e-17
557 1 71.8631 156.453 -5.55112e-17
558 1 62.7418 200.234 -5.55112e-17
559 2 131.532 96.1201 -5.55112e-17
560 2 11.3741 86.6455 -5.55112e-17
561 2 83.6443 176.492 -5.55112e-17
562 2 74.2696 198.404 -5.55112e-17
563 1 188.698 155.445 -5.55112e-17
564 2 180.916 47.4161 -5.55112e-17
565 2 182.407 66.3145 -5.55112e-17
566 2 33.209 14.7291 -5.55112e-17
567 1 127.058 17.6354 -5.55112e-17
568 1 6.50982 156.771 -5.55112e-17
569 2 3.78538 88.0955 -5.55112e-17
570 2 190.836 153.849 -5.55112e-17
571 2 32.1339 109.833 -5.55112e-17
572 1 163.532 92.8923 -5.55112e-17
573 2 111.531 107.578 -5.55112e-17
574 2 209.55 58.2783 -5.55112e-17
575 1 29.4689 108.709 -5.55112e-17
576 1 114.955 206.49 -5.55112e-17
577 1 73.1345 134.311 -5.55112e-17
578 1 150.898 176.981 -5.55112e-17
579 2 29.5154 82.671 -5.55112e-17
580 1 149.204 3.91665 -5.55112e-17
581 1 168.889 215.145 -5.55112e-17
582 2 86.5701 112.773 -5.55112e-17
583 2 139.323 32.3104 -5.55112e-17
584 2 19.5359 180.964 -5.55112e-17
585 1 186.092 48.0664 -5.55112e-17
586 1 189.884 138.718 -5.55112e-17
587 1 23.1122 1.33697 -5.55112e-17
588 2 103.509 167.669 -5.55112e-17
589 1 112.687 20.9951 -5.55112e-17
590 2 65.4843 114.281 -5.55112e-17
591 2 72.6803 57.2948 -5.55112e-17
592 1 81.0835 118.774 -5.55112e-17
593 1 9.95328 6.04062 -5.55112e-17
594 1 160.383 21.1609 -5.55112e-17
595 1 206.297 127.474 -5.55112e-17
596 2 74.3266 94.2117 -5.55112e-17
597 2 97.3107 25.1168 -5.55112e-17
598 2 47.501 49.2145 -5.55112e-17
599 2 86.2731 161.073 -5.55112e-17
600 2 179.689 119.08 -5.55112e-17
601 1 15.9038 4.74962 -5.55112e-17
602 1 67.2044 112.228 -5.55112e-17
603 2 125.973 118.145 -5.55112e-17
604 1 33.6083 56.7927 -5.55112e-17
605 2 96.002 214.119 -5.55112e-17
606 2 19.4229 71.3182 -5.55112e-17
607 2 85.2784 109.878 -5.55112e-17
608 2 51.0267 13.5198 -5.55112e-17
609 1 93.0585 66.6218 -5.55112e-17
610 2 209.221 185.538 -5.55112e-17
611 1 134.473 106.386 -5.55112e-17
612 1 185.431 3.91855 -5.55112e-17
613 2 78.9636 78.9969 -5.55112e-17
614 1 71.1152 43.9255 -5.55112e-17
615 1 156.959 28.1639 -5.55112e-17
616 2 41.2108 139.79 -5.55112e-17
617 1 59.4092 82.6547 -5.55112e-17
618 1 214.76 160.224 -5.55112e-17
619 1 117.254 184.222 -5.55112e-17
620 2 182.698 88.9341 -5.55112e-17
621 2 103.857 179.596 -5.55112e-17
622 2 0.32276 200.255 -5.55112e-17
623 2 73.1128 42.1825 -5.55112e-17
624 1 27.1051 140.41 -5.55112e-17
625 2 200.514 130.492 -5.55112e-17
626 1 88.6574 78.5483 -5.55112e-17
627 2 33.5448 122.391 -5.55112e-17
628 1 167.556 91.6545 -5.55112e-17
629 1 211.331 82.2009 -5.55112e-17
630 2 48.9134 15.9657 -5.55112e-17
631 2 179.23 25.9959 -5.55112e-17
632 2 49.0471 174.952 -5.55112e-17
633 2 117.04 89.7965 -5.55112e-17
634 2 190.118 106.135 -5.55112e-17
635 2 79.1224 169.909 -5.55112e-17
636 1 121.926 173.304 -5.55112e-17
637 1 205.655 189.473 -5.55112e-17
638 1 1.25132 26.9274 -5.55112e-17
639 2 98.2371 52.9122 -5.55112e-17
640 2 111.758 60.5955 -5.55112e-17
641 1 62.864 65.5128 -5.55112e-17
642 2 97.8078 42.8999 -5.55112e-17
643 1 40.8053 208.199 -5.55112e-17
644 2 194.256 183.743 -5.55112e-17
645 2 139.408 39.4907 -5.55112e-17
646 1 143.495 65.4027 -5.55112e-17
647 2 168.682 147.661 -5.55112e-17
648 2 75.426 77.1529 -5.55112e-17
649 1 207.882 179.87 -5.55112e-17
650 1 106.406 191.188 -5.55112e-17
651 1 160.289 96.7851 -5.55112e-17
652 2 63.3209 73.8395 -5.55112e-17
653 2 5.92819 86.3818 -5.55112e-17
654 1 174.724 155.643 -5.55112e-17
655 1 26.1551 190.192 -5.55112e-17
656 1 107.802 6.47137 -5.55112e-17
657 1 13.5562 159.37 -5.55112e-17
658 2 179.897 90.2861 -5.55112e-17
659 2 177.563 102.859 -5.55112e-17
660 1 126.236 92.8371 -5.55112e-17
661 2 99.9218 69.1666 -5.55112e-17
662 2 182.332 104.965 -5.55112e-17
663 1 75.3735 101.72 -5.55112e-17
664 1 6.42553 119.268 -5.55112e-17
665 1 211.57 76.7292 -5.55112e-17
666 1 190.507 50.4069 -5.55112e-17
667 1 117.487 102.885 -5.55112e-17
668 1 171.44 132.692 -5.55112e-17
669 1 51.3691 106.723 -5.55112e-17
670 2 218.734 188.967 -5.55112e-17
671 1 92.6625 20.9476 -5.55112e-17
672 1 121.616 11.7365 -5.55112e-17
673 2 84.4097 163.971 -5.55112e-17
674 2 159.257 141.538 -5.55112e-17
675 2 136.999 110.141 -5.55112e-17
676 1 54.7609 153.62 -5.55112e-17
677 2 164.495 16.6234 -5.55112e-17
678 1 209.64 18.3639 -5.55112e-17
679 1 98.5434 138.278 -5.55112e-17
680 2 204.369 143.355 -5.55112e-17
681 1 197.224 105.081 -5.55112e-17
682 1 11.52 171.12 -5.55112e-17
683 2 138.531 3.75523 -5.55112e-17
684 1 195.467 55.1581 -5.55112e-17
685 1 103.379 124.729 -5.55112e-17
686 1 52.667 60.9678 -5.55112e-17
687 1 192.632 126.25 -5.55112e-17
688 1 10.0573 47.8176 -5.55112e-17
689 2 133.875 0.502144 -5.55112e-17
690 1 34.4809 211.297 -5.55112e-17
691 2 99.4678 177.771 -5.55112e-17
692 2 55.6316 139.535 -5.55112e-17
693 1 21.4647 47.2811 -5.55112e-17
694 2 158.924 216.458 -5.55112e-17
695 2 165.87 189.117 -5.55112e-17
696 2 183.107 133.747 -5.55112e-17
697 1 177.893 4.09185 -5.55112e-17
698 2 163.877 193.969 -5.55112e-17
699 1 128.743 57.2046 -5.55112e-17
700 2 27.2898 29.448 -5.55112e-17
701 2 49.8663 134.011 -5.55112e-17
702 1 20.6231 126.717 -5.55112e-17
703 1 163.43 168.608 -5.55112e-17
704 1 204.89 100.009 -5.55112e-17
705 1 77.5377 50.5661 -5.55112e-17
706 1 147.346 27.9924 -5.55112e-17
707 1 179.484 148.259 -5.55112e-17
708 2 189.024 73.9723 -5.55112e-17
709 1 41.5867 151.547 -5.55112e-17
710 2 39.06 202.945 -5.55112e-17
711 2 202.907 49.1854 -5.55112e-17
712 1 75.2347 205.391 -5.55112e-17
713 1 196.98 5.33154 -5.55112e-17
714 2 76.8257 108.376 -5.55112e-17
715 2 92.9191 129.814 -5.55112e-17
716 1 186.039 211.779 -5.55112e-17
717 1 107.382 85.2118 -5.55112e-17
718 2 109.284 35.8921 -5.55112e-17
719 1 61.5352 1.90885 -5.55112e-17
720 2 165.967 72.3489 -5.55112e-17
721 2 108.579 70.3998 -5.55112e-17
722 2 94.5279 12.8086 -5.55112e-17
723 2 29.6162 213.138 -5.55112e-17
724 2 97.2986 50.2479 -5.55112e-17
725 2 160.179 181.606 -5.55112e-17
726 2 139.188 89.1737 -5.55112e-17
727 2 99.3633 55.8014 -5.55112e-17
728 1 98.885 126.395 -5.55112e-17
729 2 194.218 15.9742 -5.55112e-17
730 2 10.8774 17.0739 -5.55112e-17
731 1 48.2767 18.9264 -5.55112e-17
732 2 81.2062 168.106 -5.55112e-17
733 2 138.489 10.51 -5.55112e-17
734 2 217.552 173.708 -5.55112e-17
735 2 189.786 176.582 -5.55112e-17
736 1 214.806 16.2565 -5.55112e-17
737 2 76.8455 30.4972 -5.55112e-17
738 2 190.676 129.977 -5.55112e-17
739 2 206.38 216.554 -5.55112e-17
740 2 116.813 128.699 -5.55112e-17
741 2 116.535 190.149 -5.55112e-17
742 1 30.0644 52.3901 -5.55112e-17
743 2 81.8362 92.4771 -5.55112e-17
744 1 4.99641 98.7911 -5.55112e-17
745 2 0.421203 42.8251 -5.55112e-17
746 1 158.201 125.059 -5.55112e-17
747 1 143.169 74.7004 -5.55112e-17
748 2 80.0106 82.0791 -5.55112e-17
749 1 108.61 4.48332 -5.55112e-17
750 1 54.6273 78.6636 -5.55112e-17
751 1 18.1112 148.167 -5.55112e-17
752 2 32.1457 28.094 -5.55112e-17
753 1 16.1114 80.8567 -5.55112e-17
754 2 74.7966 136.477 -5.55112e-17
755 1 208.449 126.799 -5.55112e-17
756 2 81.5524 218.86 -5.55112e-17
757 1 175.835 188.981 -5.55112e-17
758 2 17.5928 2.7324 -5.55112e-17
759 1 139.697 213.458 -5.55112e-17
760 1 49.1473 203.906 -5.55112e-17
761 2 3.1288 107.853 -5.55112e-17
762 1 202.347 217.28 -5.55112e-17
763 2 172.835 93.3741 -5.55112e-17
764 2 30.109 140.886 -5.55112e-17
765 1 111.933 186.818 -5.55112e-17
766 2 107.946 32.6787 -5.55112e-17
767 2 218.083 126.252 -5.55112e-17
768 2 94.1848 184.937 -5.55112e-17
769 2 134.476 142.73 -5.55112e-17
770 1 13.0827 104.233 -5.55112e-17
771 1 103.96 111.852 -5.55112e-17
772 1 198.343 173.026 -5.55112e-17
773 2 187.596 2.09797 -5.55112e-17
774 1 119.121 77.4482 -5.55112e-17
775 1 130.34 120 -5.55112e-17
776 2 75.861 177.763 -5.55112e-17
777 2 200.719 168.173 -5.55112e-17
778 1 20.5033 131.182 -5.55112e-17
779 1 105.727 107.935 -5.55112e-17
780 2 35.0784 142.725 -5.55112e-17
781 1 106.191 215.875 -5.55112e-17
782 2 180.836 172.719 -5.55112e-17
783 1 139.137 21.7201 -5.55112e-17
784 2 87.125 8.35808 -5.55112e-17
785 1 187.226 105.361 -5.55112e-17
786 1 216.43 156.552 -5.55112e-17
787 2 45.9541 208.18 -5.55112e-17
788 2 185.408 190.458 -5.55112e-17
789 2 35.0438 116.444 -5.55112e-17
790 2 17.8889 113.794 -5.55112e-17
791 2 83.6763 159.515 -5.55112e-17
792 1 18.8605 13.9946 -5.55112e-17
793 1 56.3848 168.615 -5.55112e-17
794 2 48.3138 21.5734 -5.55112e-17
795 2 162.55 99.3064 -5.55112e-17
796 1 145.188 173.479 -5.55112e-17
797 1 187.918 178.538 -5.55112e-17
798 1 7.54243 34.6853 -5.55112e-17
799 2 162.699 121.676 -5.55112e-17
800 1 20.4191 214.758 -5.55112e-17
801 2 10.3228 204.795 -5.55112e-17
802 1 206.642 184.476 -5.55112e-17
803 1 75.2251 88.8706 -5.55112e-17
804 1 20.1682 68.8708 -5.55112e-17
805 2 139.467 29.4986 -5.55112e-17
806 2 186.55 147.566 -5.55112e-17
807 2 82.9329 107.827 -5.55112e-17
808 2 178.143 42.6053 -5.55112e-17
809 1 106.022 197.834 -5.55112e-17
810 2 159.434 120.02 -5.55112e-17
811 2 130.806 93.6252 -5.55112e-17
812 1 68.5357 1.59602 -5.55112e-17
813 1 143.355 96.5403 -5.55112e-17
814 1 3.4148 1.46602 -5.55112e-17
815 1 151.188 92.0598 -5.55112e-17
816 1 82.9933 216.785 -5.55112e-17
817 2 187.767 76.8363 -5.55112e-17
818 2 1.47277 182.106 -5.55112e-17
819 2 118.527 159.165 -5.55112e-17
820 1 79.3045 87.5392 -5.55112e-17
821 1 23.3356 167.194 -5.55112e-17
822 2 148.627 186.337 -5.55112e-17
823 1 197.923 204.29 -5.55112e-17
824 1 147.65 210.719 -5.55112e-17
825 1 56.2597 94.047 -5.55112e-17
826 2 200.411 146.671 -5.55112e-17
827 2 99.2785 209.762 -5.55112e-17
828 1 51.9011 171.605 -5.55112e-17
829 2 166.242 61.0027 -5.55112e-17
830 1 175.584 130.056 -5.55112e-17
831 2 217.596 132.014 -5.55112e-17
832 2 203.463 178.078 -5.55112e-17
833 2 52.9475 19.0146 -5.55112e-17
834 1 140.819 9.33563 -5.55112e-17
835 1 102.744 143.727 -5.55112e-17
836 1 54.1411 56.4188 -5.55112e-17
837 2 135.888 87.6948 -5.55112e-17
838 2 7.59413 20.9848 -5.55112e-17
839 1 77.0533 127.358 -5.55112e-17
840 2 206.77 203.416 -5.55112e-17
841 2 199.06 72.6982 -5.55112e-17
842 1 43.5319 197.898 -5.55112e-17
843 1 74.5412 96.9523 -5.55112e-17
844 2 41.1908 93.3571 -5.55112e-17
845 1 100.953 120.336 -5.55112e-17
846 2 155.359 124.603 -5.55112e-17
847 1 115.039 50.7565 -5.55112e-17
848 2 139.178 187.858 -5.55112e-17
849 1 116.29 121.575 -5.55112e-17
850 2 153.399 50.3298 -5.55112e-17
851 2 103.81 116.269 -5.55112e-17
852 1 137.704 37.0832 -5.55112e-17
853 1 123.941 187.046 -5.55112e-17
854 2 110.053 21.7394 -5.55112e-17
855 2 119.903 161.745 -5.55112e-17
856 1 133.612 145.092 -5.55112e-17