ITEM: TIMESTEP
0
ITEM: NUMBER OF ATOMS
7200
ITEM: BOX BOUNDS xy xz yz pp pp pp
0.0000000000000000e+00 2.1900000000000000e+02 0.0000000000000000e+00
0.0000000000000000e+00 2.1900000000000000e+02 0.0000000000000000e+00
-3.6499999999999999e-01 3.6499999999999999e-01 0.0000000000000000e+00
ITEM: ATOMS id type x y z
1 1 183.094 13.0472 -5.55112e-17
2 2 187.709 183.393 -5.55112e-17
3 2 144.498 189.144 -5.55112e-17
4 1 122.833 110.234 -5.55112e-17
5 1 101.219 122.495 -5.55112e-17
6 1 104.399 25.4702 -5.55112e-17
7 2 160.452 128.559 -5.55112e-17
8 2 69.8824 25.5384 -5.55112e-17
9 1 21.6626 215.051 -5.55112e-17
10 2 52.7094 166.935 -5.55112e-17
11 2 210.019 100.421 -5.55112e-17
12 1 33.4766 197.789 -5.55112e-17
13 2 194.23 53.408 -5.55112e-17
14 1 57.7085 184.828 -5.55112e-17
15 2 193.481 218.979 -5.55112e-17
16 2 217.942 85.7961 -5.55112e-17
17 1 67.4166 74.5434 -5.55112e-17
18 2 10.1885 172.615 -5.55112e-17
19 1 92.9823 130.146 -5.55112e-17
20 1 72.5294 11.4043 -5.55112e-17
21 1 156.192 7.3703 -5.55112e-17
22 2 31.437 212.611 -5.55112e-17
23 2 43.2784 208.371 -5.55112e-17
24 2 218.753 103.166 -5.55112e-17
25 2 29.96 207.816 -5.55112e-17
26 2 149.203 27.9208 -5.55112e-17
27 1 217.154 162.54 -5.55112e-17
28 2 54.4402 155.286 -5.55112e-17
29 2 83.7499 3.84497 -5.55112e-17
30 2 132.289 37.272 -5.55112e-17
31 2 156.266 83.5246 -5.55112e-17
32 1 48.1241 109.309 -5.55112e-17
33 2 145.044 87.0288 -5.55112e-17
34 2 15.4915 96.0757 -5.55112e-17
35 2 127.137 11.3211 -5.55112e-17
36 1 160.671 146.431 -5.55112e-17
37 1 133.257 185.015 -5.55112e-17
38 2 208.902 158.07 -5.55112e-17
39 1 8.1232 38.3591 -5.55112e-17
40 2 196.487 73.5102 -5.55112e-17
41 1 192.73 73.064 -5.55112e-17
42 1 54.5227 58.6782 -5.55112e-17
43 1 210.753 132.525 -5.55112e-17
44 1 155.14 188.685 -5.55112e-17
45 2 159.073 61.1809 -5.55112e-17
46 1 123.969 192.432 -5.55112e-17
47 2 89.2045 79.3858 -5.55112e-17
48 2 150.386 129.532 -5.55112e-17
49 1 194.408 200.189 -5.55112e-17
50 2 29.334 47.7071 -5.55112e-17
51 1 186.46 3.01771 -5.55112e-17
52 1 115.691 48.1622 -5.55112e-17
53 2 55.1822 201.071 -5.55112e-17
54 1 39.4182 16.6337 -5.55112e-17
55 2 53.7361 142.019 -5.55112e-17
56 1 31.0664 132.575 -5.55112e-17
57 2 58.4996 134.147 -5.55112e-17
58 1 186.001 37.9744 -5.55112e-17
59 1 157.221 86.1078 -5.55112e-17
60 2 206.347 59.3753 -5.55112e-17
61 1 157.521 164.165 -5.55112e-17
62 1 106.73 112.045 -5.55112e-17
63 2 109.027 38.7609 -5.55112e-17
64 1 28.6625 18.2234 -5.55112e-17
65 2 152.876 149.264 -5.55112e-17
66 2 13.1551 154.742 -5.55112e-17
67 2 183.254 107.499 -5.55112e-17
68 1 136.476 83.1997 -5.55112e-17
69 2 109.876 168.408 -5.55112e-17
70 1 141.642 97.5383 -5.55112e-17
71 1 198.385 147.296 -5.55112e-17
72 2 44.948 157.792 -5.55112e-17
73 2 191.722 179.413 -5.55112e-17
74 2 111.691 66.7254 -5.55112e-17
75 1 14.7186 136.611 -5.55112e-17
76 2 137.932 206.69 -5.55112e-17
77 2 168.688 16.1636 -5.55112e-17
78 1 93.1388 208.041 -5.55112e-17
79 2 60.452 75.738 -5.55112e-17
80 1 50.1542 22.9209 -5.55112e-17
81 1 181.676 211.194 -5.55112e-17
82 1 173.581 41.1967 -5.55112e-17
83 1 70.9297 91.1739 -5.55112e-17
84 2 140.971 179.466 -5.55112e-17
85 2 151.578 146.018 -5.55112e-17
86 2 50.5078 68.0183 -5.55112e-17
87 2 37.4297 76.0731 -5.55112e-17
88 1 80.5534 157.349 -5.55112e-17
89 2 199.693 105.329 -5.55112e-17
90 2 126.504 36.0237 -5.55112e-17
91 2 11.3039 182.243 -5.55112e-17
92 1 27.5922 215.303 -5.55112e-17
93 2 110.495 154.241 -5.55112e-17
94 2 112.983 144.294 -5.55112e-17
95 1 211.432 51.3521 -5.55112e-17
96 2 31.8679 54.9081 -5.55112e-17
97 2 4.31329 211.598 -5.55112e-17
98 2 35.7139 185.336 -5.55112e-17
99 1 104.465 9.72851 -5.55112e-17
100 2 158.499 65.7561 -5.55112e-17
101 1 184.707 109.657 -5.55112e-17
102 1 66.2901 164.647 -5.55112e-17
103 2 204.697 100.287 -5.55112e-17
104 2 104.346 72.5338 -5.55112e-17
105 1 160.357 58.5624 -5.55112e-17
106 1 184.88 60.4022 -5.55112e-17
107 1 12.472 107.161 -5.55112e-17
108 1 70.3791 210.292 -5.55112e-17
109 2 217.559 39.2155 -5.55112e-17
110 2 145.134 29.769 -5.55112e-17
111 1 53.0985 92.3931 -5.55112e-17
112 2 8.72008 50.6501 -5.55112e-17
113 1 134.924 10.9284 -5.55112e-17
114 1 92.3985 86.1975 -5.55112e-17
115 2 31.0602 59.2062 -5.55112e-17
116 2 184.428 15.3222 -5.55112e-17
117 1 163.559 110.055 -5.55112e-17
118 1 82.8245 94.4849 -5.55112e-17
119 2 99.0646 139.391 -5.55112e-17
120 2 201.575 58.972 -5.55112e-17
121 1 205.419 138.869 -5.55112e-17
122 2 143.866 129.602 -5.55112e-17
123 2 6.9323 129.827 -5.55112e-17
124 1 160.639 199.709 -5.55112e-17
125 1 88.2536 192.568 -5.55112e-17
126 2 97.5726 84.1008 -5.55112e-17
127 2 208.66 110.758 -5.55112e-17
128 1 121.697 104.843 -5.55112e-17
129 1 143.898 194.332 -5.55112e-17
130 2 120.442 61.3054 -5.55112e-17
131 1 134.222 60.0561 -5.55112e-17
132 1 139.509 21.7271 -5.55112e-17
133 1 181.291 105.775 -5.55112e-17
134 1 81.4049 191.584 -5.55112e-17
135 2 177.707 60.9275 -5.55112e-17
136 1 190.976 118.892 -5.55112e-17
137 1 60.4783 7.68365 -5.55112e-17
138 2 155.985 158.651 -5.55112e-17
139 1 132.453 11.7531 -5.55112e-17
140 1 144.653 208.306 -5.55112e-17
141 1 50.7832 70.7944 -5.55112e-17
142 1 213.095 190.639 -5.55112e-17
143 1 26.4367 26.5399 -5.55112e-17
144 1 46.6632 98.1489 -5.55112e-17
145 2 193.122 79.9252 -5.55112e-17
146 1 152.482 128.047 -5.55112e-17
147 2 16.5314 134.601 -5.55112e-17
148 1 24.5784 133.458 -5.55112e-17
149 1 147.023 190.022 -5.55112e-17
150 2 65.5524 52.7676 -5.55112e-17
151 1 132.868 138.048 -5.55112e-17
152 1 164.629 163.595 -5.55112e-17
153 2 124.571 130.488 -5.55112e-17
154 1 184.227 52.6614 -5.55112e-17
155 2 202.988 39.9725 -5.55112e-17
156 2 109.39 197.18 -5.55112e-17
157 2 168.076 26.6963 -5.55112e-17
158 2 27.9832 8.2149 -5.55112e-17
159 2 12.2457 159.204 -5.55112e-17
160 2 121.226 54.9234 -5.55112e-17
161 2 130.356 138.228 -5.55112e-17
162 1 23.7655 67.2549 -5.55112e-17
163 1 189.201 33.7416 -5.55112e-17
164 2 108.361 134.765 -5.55112e-17
165 1 48.8692 72.3563 -5.55112e-17
166 2 6.03602 199.726 -5.55112e-17
167 1 107.308 168.058 -5.55112e-17
168 1 211.074 102.896 -5.55112e-17
169 2 98.5798 199.293 -5.55112e-17
170 1 66.4876 206.799 -5.55112e-17
171 1 137.178 92.2672 -5.55112e-17
172 1 199.212 199.44 -5.55112e-17
173 1 39.1782 203.53 -5.55112e-17
174 2 38.7106 173.299 -5.55112e-17
175 2 50.2105 200.104 -5.55112e-17
176 1 119.953 151.615 -5.55112e-17
177 2 104.876 15.5397 -5.55112e-17
178 1 25.4487 7.80377 -5.55112e-17
179 2 106.298 197.629 -5.55112e-17
180 1 47.1272 76.5886 -5.55112e-17
181 1 15.9249 119.232 -5.55112e-17
182 1 113.236 87.0742 -5.55112e-17
183 1 64.2641 168.923 -5.55112e-17
184 2 157.445 25.4345 -5.55112e-17
185 2 189.919 78.5306 -5.55112e-17
186 2 74.4967 206.485 -5.55112e-17
187 2 158.681 201.606 -5.55112e-17
188 2 60.3568 28.5701 -5.55112e-17
189 1 191.496 57.8045 -5.55112e-17
190 1 196.23 55.1193 -5.55112e-17
191 2 35.4293 104.695 -5.55112e-17
192 2 89.5543 60.4723 -5.55112e-17
193 1 108.74 165.942 -5.55112e-17
194 1 27.1793 5.70964 -5.55112e-17
195 2 58.3578 120.088 -5.55112e-17
196 1 0.60509 218.685 -5.55112e-17
197 2 118.275 48.4734 -5.55112e-17
198 2 206.199 27.059 -5.55112e-17
199 2 100.177 170.324 -5.55112e-17
200 2 98.62 31.2449 -5.55112e-17
201 2 103.473 121.102 -5.55112e-17
202 1 43.8889 34.0664 -5.55112e-17
203 1 18.2569 43.0236 -5.55112e-17
204 2 45.1822 78.2951 -5.55112e-17
205 2 182.584 182.293 -5.55112e-17
206 2 169.582 126.857 -5.55112e-17
207 1 74.633 189.16 -5.55112e-17
208 2 135.342 54.5027 -5.55112e-17
209 2 32.7331 142.618 -5.55112e-17
210 1 182.487 113.042 -5.55112e-17
211 1 208.212 35.3889 -5.55112e-17
212 1 208.249 85.3264 -5.55112e-17
213 1 128.685 123.995 -5.55112e-17
214 2 12.237 11.3571 -5.55112e-17
215 1 5.53226 142.529 -5.55112e-17
216 1 54.8214 46.6981 -5.55112e-17
217 1 164.244 61.2424 -5.55112e-17
218 2 201.346 121.072 -5.55112e-17
219 2 136.132 189.494 -5.55112e-17
220 1 120.746 1.57967 -5.55112e-17
221 2 82.96 6.99041 -5.55112e-17
222 1 158.494 157.383 -5.55112e-17
223 1 45.9198 121.271 -5.55112e-17
224 2 145.684 70.9422 -5.55112e-17
225 2 169.41 164.246 -5.55112e-17
226 1 196.574 9.72226 -5.55112e-17
227 2 203.324 214.904 -5.55112e-17
228 2 118.178 63.4304 -5.55112e-17
229 1 47.7577 22.7475 -5.55112e-17
230 1 4.6047 56.409 -5.55112e-17
231 2 137.314 160.909 -5.55112e-17
232 1 18.0233 212.458 -5.55112e-17
233 2 75.8455 195.557 -5.55112e-17
234 1 0.402198 59.287 -5.55112e-17
235 1 150.255 106.01 -5.55112e-17
236 2 153.228 52.741 -5.55112e-17
237 2 99.7414 204.038 -5.55112e-17
238 2 94.6736 140.321 -5.55112e-17
239 1 35.0226 216.95 -5.55112e-17
240 1 129.184 90.7011 -5.55112e-17
241 2 3.61209 124.633 -5.55112e-17
242 1 194.172 28.5213 -5.55112e-17
243 2 214.886 130.124 -5.55112e-17
244 2 35.3934 191.006 -5.55112e-17
245 1 174.15 21.0461 -5.55112e-17
246 2 90.1339 84.9015 -5.55112e-17
247 2 198.916 150.523 -5.55112e-17
248 1 38.1335 26.8228 -5.55112e-17
249 1 131.837 108.139 -5.55112e-17
250 1 134.615 27.8345 -5.55112e-17
251 2 102.272 43.564 -5.55112e-17
252 1 111.06 156.895 -5.55112e-17
253 2 95.5813 97.0689 -5.55112e-17
254 2 179.383 205.177 -5.55112e-17
255 2 121.342 51.9068 -5.55112e-17
256 1 3.12684 180.121 -5.55112e-17
257 2 32.3738 195.276 -5.55112e-17
258 1 210.625 81.2621 -5.55112e-17
259 2 161.395 141.278 -5.55112e-17
260 1 39.7796 192.762 -5.55112e-17
261 2 142.904 176.915 -5.55112e-17
262 2 187.212 110.067 -5.55112e-17
263 2 94.6539 172.796 -5.55112e-17
264 1 199.088 36.3393 -5.55112e-17
265 1 157.379 187.229 -5.55112e-17
266 1 98.896 196.737 -5.55112e-17
267 2 115.726 15.9799 -5.55112e-17
268 1 218.8 48.3498 -5.55112e-17
269 2 10.4154 113.496 -5.55112e-17
270 2 185.802 148.483 -5.55112e-17
271 2 187.52 94.5553 -5.55112e-17
272 1 59.2523 26.0251 -5.55112e-17
273 1 70.1995 83.3719 -5.55112e-17
274 1 37.9735 196.355 -5.55112e-17
275 1 146.616 109.72 -5.55112e-17
276 1 199.026 74.8337 -5.55112e-17
277 1 100.394 38.1412 -5.55112e-17
278 2 60.953 145.676 -5.55112e-17
279 2 159.822 86.198 -5.55112e-17
280 1 116.801 210.941 -5.55112e-17
281 2 169.703 182.872 -5.55112e-17
282 2 75.387 127.454 -5.55112e-17
283 2 218.981 151.17 -5.55112e-17
284 1 126.213 113.559 -5.55112e-17
285 1 73.4819 165.615 -5.55112e-17
286 2 29.9832 180.26 -5.55112e-17
287 2 93.2694 109.681 -5.55112e-17
288 1 105.022 123.394 -5.55112e-17
289 2 193.882 56.5417 -5.55112e-17
290 1 101.15 30.0825 -5.55112e-17
291 2 96.1789 185.929 -5.55112e-17
292 1 77.1122 125.597 -5.55112e-17
293 1 159.303 167.899 -5.55112e-17
294 1 29.7359 177.889 -5.55112e-17
295 2 46.7331 146.02 -5.55112e-17
296 1 196.88 176.63 -5.55112e-17
297 1 1.97955 18.374 -5.55112e-17
298 2 30.4966 140.921 -5.55112e-17
299 1 177.424 55.793 -5.55112e-17
300 2 190.287 192.835 -5.55112e-17
301 2 172.051 19.6286 -5.55112e-17
302 2 163.455 89.0377 -5.55112e-17
303 1 2.36911 151.835 -5.55112e-17
304 1 124.313 105.801 -5.55112e-17
305 1 92.2663 177.625 -5.55112e-17
306 2 83.8544 17.9792 -5.55112e-17
307 2 150.489 167.846 -5.55112e-17
308 2 141.939 22.4996 -5.55112e-17
309 1 71.1858 72.5563 -5.55112e-17
310 1 190.443 189.975 -5.55112e-17
311 1 151.03 108.521 -5.55112e-17
312 2 134.733 13.5363 -5.55112e-17
313 2 155.026 17.9948 -5.55112e-17
314 1 184.532 58.0097 -5.55112e-17
315 2 56.5647 108.198 -5.55112e-17
316 1 95.9889 31.1661 -5.55112e-17
317 1 132.896 175.944 -5.55112e-17
318 1 216.773 135.134 -5.55112e-17
319 2 74.1201 200.92 -5.55112e-17
320 1 213.888 47.5714 -5.55112e-17
321 1 52.1858 87.3998 -5.55112e-17
322 1 51.4801 148.399 -5.55112e-17
323 2 19.896 138.884 -5.55112e-17
324 2 7.32703 95.4269 -5.55112e-17
325 2 216.332 13.4953 -5.55112e-17
326 1 184.8 1.00096 -5.55112e-17
327 1 36.0262 45.9995 -5.55112e-17
328 2 32.7209 192.247 -5.55112e-17
329 2 28.3329 83.4967 -5.55112e-17
330 2 153.56 38.7 -5.55112e-17
331 2 187.866 67.4006 -5.55112e-17
332 2 121.327 114.53 -5.55112e-17
333 2 27.9878 151.342 -5.55112e-17
334 2 216.083 18.0079 -5.55112e-17
335 1 167.148 210.735 -5.55112e-17
336 2 27.6006 142.19 -5.55112e-17
337 2 40.8242 9.76384 -5.55112e-17
338 1 203.149 90.6841 -5.55112e-17
339 2 14.8385 152.485 -5.55112e-17
340 2 176.552 214.161 -5.55112e-17
341 2 101.262 60.5478 -5.55112e-17
342 2 173.548 166.897 -5.55112e-17
343 2 176.223 4.91944 -5.55112e-17
344 1 88.0972 105.367 -5.55112e-17
345 2 26.4202 212.904 -5.55112e-17
346 2 75.7544 72.6038 -5.55112e-17
347 1 147.579 98.3439 -5.55112e-17
348 1 181.107 3.85034 -5.55112e-17
349 2 173.183 69.9442 -5.55112e-17
350 2 78.1442 178.548 -5.55112e-17
351 1 173.161 138.541 -5.55112e-17
352 1 212.698 163.829 -5.55112e-17
353 2 141.961 132.03 -5.55112e-17
354 2 191.468 176.201 -5.55112e-17
355 1 215.691 157.401 -5.55112e-17
356 2 114.579 1.47727 -5.55112e-17
357 1 126.896 192.525 -5.55112e-17
358 1 78.1933 25.6099 -5.55112e-17
359 1 34.7955 144.002 -5.55112e-17
360 1 50.4714 10.0727 -5.55112e-17
361 2 196.471 68.3194 -5.55112e-17
362 2 171.982 94.3908 -5.55112e-17
363 1 78.9524 215.825 -5.55112e-17
364 2 217.037 46.3302 -5.55112e-17
365 1 5.74008 164.504 -5.55112e-17
366 1 83.075 172.742 -5.55112e-17
367 1 161.347 103.934 -5.55112e-17
368 1 20.8664 164.806 -5.55112e-17
369 2 81.2941 143.62 -5.55112e-17
370 1 6.44603 132.365 -5.55112e-17
371 2 71.1942 111.949 -5.55112e-17
372 1 87.8266 6.70342 -5.55112e-17
373 2 117.653 208.637 -5.55112e-17
374 2 177.186 101.78 -5.55112e-17
375 1 136.327 25.8083 -5.55112e-17
376 1 122.293 147.304 -5.55112e-17
377 2 95.7379 75.7441 -5.55112e-17
378 2 215.367 106.93 -5.55112e-17
379 2 169.499 187.761 -5.55112e-17
380 1 199.67 33.8102 -5.55112e-17
381 1 175.259 67.6486 -5.55112e-17
382 1 122.525 27.0139 -5.55112e-17
383 1 109.884 83.2715 -5.55112e-17
384 2 54.0688 101.632 -5.55112e-17
385 1 65.8268 149.142 -5.55112e-17
386 2 179.59 175.75 -5.55112e-17
387 1 34.6473 107.332 -5.55112e-17
388 1 143.799 164.37 -5.55112e-17
389 2 216.191 121.301 -5.55112e-17
390 1 104.617 64.7018 -5.55112e-17
391 1 203.447 217.51 -5.55112e-17
392 2 3.88873 100.63 -5.55112e-17
393 2 192.468 173.233 -5.55112e-17
394 1 36.3636 203.892 -5.55112e-17
395 1 19.1258 214.986 -5.55112e-17
396 2 75.3326 88.4326 -5.55112e-17
397 1 67.7839 41.846 -5.55112e-17
398 2 166.235 110.545 -5.55112e-17
399 2 196.878 106.497 -5.55112e-17
400 2 123.772 69.0098 -5.55112e-17
401 2 84.3021 190.768 -5.55112e-17
402 1 84.7685 43.398 -5.55112e-17
403 1 69.7234 116.996 -5.55112e-17
404 2 113.259 13.8775 -5.55112e-17
405 1 49.5117 197.212 -5.55112e-17
406 2 216.957 96.2937 -5.55112e-17
407 1 123.576 78.8469 -5.55112e-17
408 1 130.066 29.1739 -5.55112e-17
409 2 214.629 116.088 -5.55112e-17
410 2 70.6725 159.311 -5.55112e-17
411 1 136.244 96.6286 -5.55112e-17
412 1 164.606 6.86074 -5.55112e-17
413 1 34.2826 86.2274 -5.55112e-17
414 2 193.372 202.607 -5.55112e-17
415 1 107.86 126.831 -5.55112e-17
416 1 175.986 52.0369 -5.55112e-17
417 2 107.543 129.41 -5.55112e-17
418 2 34.6495 179.616 -5.55112e-17
419 2 195.049 91.9493 -5.55112e-17
420 2 109.084 44.0583 -5.55112e-17
421 1 70.3083 30.9092 -5.55112e-17
422 1 35.4347 61.3419 -5.55112e-17
423 2 116.744 125.455 -5.55112e-17
424 2 39.3502 24.6775 -5.55112e-17
425 2 117.49 150.259 -5.55112e-17
426 1 186.089 96.84 -5.55112e-17
427 2 72.9429 59.3191 -5.55112e-17
428 1 29.2457 175.296 -5.55112e-17
429 2 132.088 149.937 -5.55112e-17
430 2 111.599 104.318 -5.55112e-17
431 1 13.5016 9.06545 -5.55112e-17
432 2 173.911 3.06853 -5.55112e-17
433 1 186.722 198.83 -5.55112e-17
434 1 20.0705 205.001 -5.55112e-17
435 1 149.682 84.9159 -5.55112e-17
436 2 85.1745 198.632 -5.55112e-17
437 2 180.896 82.6173 -5.55112e-17
438 2 194.028 177.642 -5.55112e-17
439 2 92.8193 10.4971 -5.55112e-17
440 2 201.011 92.1883 -5.55112e-17
441 1 130.91 167.217 -5.55112e-17
442 1 38.0501 105.035 -5.55112e-17
443 2 78.9261 82.2352 -5.55112e-17
444 1 204.472 104.958 -5.55112e-17
445 1 171.669 135.453 -5.55112e-17
446 2 183.57 150.309 -5.55112e-17
447 2 40.248 39.9385 -5.55112e-17
448 2 205.632 175.856 -5.55112e-17
449 1 41.4098 177.291 -5.55112e-17
450 1 10.7763 126.298 -5.55112e-17
451 1 54.1435 209.506 -5.55112e-17
452 2 209.002 61.1606 -5.55112e-17
453 1 216.433 150.364 -5.55112e-17
454 1 3.11858 68.7047 -5.55112e-17
455 2 81.3673 130.988 -5.55112e-17
456 1 85.2147 1.74246 -5.55112e-17
457 2 140.99 145.082 -5.55112e-17
458 2 155.649 135.521 -5.55112e-17
459 2 133.648 51.4563 -5.55112e-17
460 1 197.292 169.844 -5.55112e-17
461 1 112.315 128.64 -5.55112e-17
462 1 104.162 196.261 -5.55112e-17
463 2 109.988 218.439 -5.55112e-17
464 2 13.7932 77.8333 -5.55112e-17
465 1 123.921 16.1769 -5.55112e-17
466 2 150.599 126.195 -5.55112e-17
467 2 65.809 133.197 -5.55112e-17
468 2 124.418 125.763 -5.55112e-17
469 2 57.8936 71.5357 -5.55112e-17
470 2 208.339 154.768 -5.55112e-17
471 2 211.979 211.397 -5.55112e-17
472 2 111.584 36.7042 -5.55112e-17
473 2 198.114 214.832 -5.55112e-17
474 2 85.115 147.128 -5.55112e-17
475 1 163.799 183.446 -5.55112e-17
476 2 174.042 34.5752 -5.55112e-17
477 1 209.407 217.792 -5.55112e-17
478 1 45.9631 188.368 -5.55112e-17
479 2 0.64206 197.599 -5.55112e-17
480 1 83.0761 62.0453 -5.55112e-17
481 1 2.66153 209.237 -5.55112e-17
482 2 152.847 176.223 -5.55112e-17
483 1 134.094 209.303 -5.55112e-17
484 1 66.402 135.847 -5.55112e-17
485 2 13.6238 173.907 -5.55112e-17
486 1 132.621 72.9229 -5.55112e-17
487 1 12.9353 202.101 -5.55112e-17
488 1 49.6446 83.9138 -5.55112e-17
489 1 70.2561 109.595 -5.55112e-17
490 1 164.408 73.1077 -5.55112e-17
491 1 162.948 75.197 -5.55112e-17
492 2 209.216 15.2015 -5.55112e-17
493 1 94.0187 203.193 -5.55112e-17
494 2 77.3757 65.7826 -5.55112e-17
495 1 149.851 91.8808 -5.55112e-17
496 1 52.3185 124.012 -5.55112e-17
497 1 136.734 109.765 -5.55112e-17
498 2 145.584 39.0101 -5.55112e-17
499 2 178.082 119.322 -5.55112e-17
500 2 57.5524 32.7432 -5.55112e-17
501 2 14.5088 139.74 -5.55112e-17
502 2 190.66 126.619 -5.55112e-17
503 2 57.2724 63.6288 -5.55112e-17
504 2 98.6577 50.7309 -5.55112e-17
505 2 112.143 214.199 -5.55112e-17
506 1 207.431 6.15357 -5.55112e-17
507 2 49.9489 182.468 -5.55112e-17
508 1 140.939 59.3176 -5.55112e-17
509 1 209.367 47.0733 -5.55112e-17
510 1 195.389 103.949 -5.55112e-17
511 2 108.446 179.461 -5.55112e-17
512 1 11.0428 42.7197 -5.55112e-17
513 2 87.7352 182.816 -5.55112e-17
514 2 15.0099 87.4924 -5.55112e-17
515 1 60.4455 99.1678 -5.55112e-17
516 2 101.744 73.4226 -5.55112e-17
517 1 32.458 147.724 -5.55112e-17
518 2 10.5159 13.7691 -5.55112e-17
519 1 124.845 92.1226 -5.55112e-17
520 2 209.411 93.6969 -5.55112e-17
521 2 130.371 39.7277 -5.55112e-17
522 1 186.981 7.54278 -5.55112e-17
523 1 127.494 99.6374 -5.55112e-17
524 2 175.192 18.5264 -5.55112e-17
525 2 185.409 45.7823 -5.55112e-17
526 2 108.177 16.4013 -5.55112e-17
527 1 168.817 23.8467 -5.55112e-17
528 1 212.945 201.654 -5.55112e-17
529 2 104.521 176.509 -5.55112e-17
530 2 18.1803 88.3991 -5.55112e-17
531 2 184.687 171.97 -5.55112e-17
532 1 81.1374 4.97375 -5.55112e-17
533 2 23.3827 158.391 -5.55112e-17
534 1 22.4857 169.01 -5.55112e-17
535 1 169.998 206.627 -5.55112e-17
536 2 17.8963 169.323 -5.55112e-17
537 1 142.398 29.4645 -5.55112e-17
538 1 68.3626 158.078 -5.55112e-17
539 2 80.8392 162.998 -5.55112e-17
540 1 35.2096 182.095 -5.55112e-17
541 1 105.1 128.817 -5.55112e-17
542 1 58.3769 126.776 -5.55112e-17
543 2 120.393 168.276 -5.55112e-17
544 1 217.593 211.103 -5.55112e-17
545 1 174.996 72.0114 -5.55112e-17
546 2 186.534 10.0819 -5.55112e-17
547 1 12.6391 71.6351 -5.55112e-17
548 1 29.6922 5.91733 -5.55112e-17
549 2 35.1252 152.907 -5.55112e-17
550 2 164.221 193.808 -5.55112e-17
551 2 38.6597 7.17693 -5.55112e-17
552 1 32.0117 52.3745 -5.55112e-17
553 2 206.881 196.455 -5.55112e-17
554 2 144.285 34.2165 -5.55112e-17
555 2 176.612 133.718 -5.55112e-17
556 1 177.57 211.853 -5.55112e-17
557 1 211.091 53.997 -5.55112e-17
558 1 60.3525 143.3 -5.55112e-17
559 2 105.559 91.8528 -5.55112e-17
560 2 57.0057 89.506 -5.55112e-17
561 2 110.656 181.531 -5.55112e-17
562 2 99.0564 65.7061 -5.55112e-17
563 1 73.5809 168.214 -5.55112e-17
564 2 103.098 78.5913 -5.55112e-17
565 2 32.6286 61.8776 -5.55112e-17
566 2 63.9716 60.6076 -5.55112e-17
567 1 95.1575 11.9396 -5.55112e-17
568 1 22.7399 78.1816 -5.55112e-17
569 2 141.304 194.493 -5.55112e-17
570 2 11.6372 21.0848 -5.55112e-17
571 2 4.73429 62.0195 -5.55112e-17
572 1 115.253 107.826 -5.55112e-17
573 2 37.5367 90.0416 -5.55112e-17
574 2 178.675 170.924 -5.55112e-17
575 1 196.299 206.927 -5.55112e-17
576 1 22.5641 69.8711 -5.55112e-17
577 1 127.405 74.7084 -5.55112e-17
578 1 184.316 115.098 -5.55112e-17
579 2 182.473 46.5027 -5.55112e-17
580 1 108.883 103.958 -5.55112e-17
581 1 91.6808 146.651 -5.55112e-17
582 2 125.504 101.158 -5.55112e-17
583 2 103.138 84.3299 -5.55112e-17
584 2 107.563 150.941 -5.55112e-17
585 1 181.805 103.088 -5.55112e-17
586 1 143.03 79.8112 -5.55112e-17
587 1 158.176 111.284 -5.55112e-17
588 2 64.2835 109.214 -5.55112e-17
589 1 210.795 59.3084 -5.55112e-17
590 2 181.991 58.059 -5.55112e-17
591 2 179.377 16.3697 -5.55112e-17
592 1 204.188 128.846 -5.55112e-17
593 1 126.757 90.1253 -5.55112e-17
594 1 5.3927 69.9681 -5.55112e-17
595 1 30.4499 63.4861 -5.55112e-17
596 2 107.314 70.9324 -5.55112e-17
597 2 63.5076 105.809 -5.55112e-17
598 2 135.51 87.5865 -5.55112e-17
599 2 97.2742 166.111 -5.55112e-17
600 2 49.3496 99.1352 -5.55112e-17
601 1 145.693 107.305 -5.55112e-17
602 1 173.592 51.9972 -5.55112e-17
603 2 216.476 159.784 -5.55112e-17
604 1 46.0018 179.763 -5.55112e-17
605 2 139.929 99.9337 -5.55112e-17
606 2 150.159 98.9128 -5.55112e-17
607 2 48.0986 169.502 -5.55112e-17
608 2 128.185 31.1661 -5.55112e-17
609 1 77.7495 89.5803 -5.55112e-17
610 2 105.992 200.412 -5.55112e-17
611 1 1.18119 165.634 -5.55112e-17
612 1 207.392 117.59 -5.55112e-17
613 2 213.362 156.555 -5.55112e-17
614 1 202.557 30.691 -5.55112e-17
615 1 151.619 103.797 -5.55112e-17
616 2 146.291 177.885 -5.55112e-17
617 1 168.61 0.595745 -5.55112e-17
618 1 136.909 216.477 -5.55112e-17
619 1 164.364 161.159 -5.55112e-17
620 2 42.8925 89.58 -5.55112e-17
621 2 203.541 77.0129 -5.55112e-17
622 2 145.216 154.341 -5.55112e-17
623 2 109.055 146.731 -5.55112e-17
624 1 107.232 177.193 -5.55112e-17
625 2 208.652 80.0071 -5.55112e-17
626 1 210.439 189.795 -5.55112e-17
627 2 194.9 192.783 -5.55112e-17
628 1 117.206 156.026 -5.55112e-17
629 1 30.4788 41.3922 -5.55112e-17
630 2 132.939 214.243 -5.55112e-17
631 2 144.902 114.654 -5.55112e-17
632 2 209.113 19.7598 -5.55112e-17
633 2 60.7118 131.849 -5.55112e-17
634 2 191.514 67.5818 -5.55112e-17
635 2 80.2988 72.2606 -5.55112e-17
636 1 88.3696 130.939 -5.55112e-17
637 1 217.007 152.85 -5.55112e-17
638 1 116.797 69.1985 -5.55112e-17
639 2 200.873 65.2597 -5.55112e-17
640 2 149.129 77.8728 -5.55112e-17
641 1 199.997 96.4704 -5.55112e-17
642 2 162.234 35.4042 -5.55112e-17
643 1 165.266 57.6936 -5.55112e-17
644 2 139.827 154.999 -5.55112e-17
645 2 5.35375 75.365 -5.55112e-17
646 1 170.668 142.566 -5.55112e-17
647 2 129.852 148.122 -5.55112e-17
648 2 190.754 211.98 -5.55112e-17
649 1 63.7282 145.63 -5.55112e-17
650 1 56.5411 153.53 -5.55112e-17
651 1 112.643 131.081 -5.55112e-17
652 2 8.90819 213.968 -5.55112e-17
653 2 195.66 45.012 -5.55112e-17
654 1 208.43 165.25 -5.55112e-17
655 1 63.7701 47.624 -5.55112e-17
656 1 199.415 9.9578 -5.55112e-17
657 1 125.429 120.675 -5.55112e-17
658 2 166.025 105.194 -5.55112e-17
659 2 101.569 137.424 -5.55112e-17
660 1 25.063 12.1119 -5.55112e-17
661 2 16.0572 37.191 -5.55112e-17
662 2 136.037 116.582 -5.55112e-17
663 1 163.768 112.411 -5.55112e-17
664 1 80.1064 138.432 -5.55112e-17
665 1 135.989 143.831 -5.55112e-17
666 1 202.644 184.957 -5.55112e-17
667 1 0.343618 117.028 -5.55112e-17
668 1 134.638 156.724 -5.55112e-17
669 1 107.621 160.671 -5.55112e-17
670 2 211.775 161.045 -5.55112e-17
671 1 3.54102 16.1388 -5.55112e-17
672 1 193.561 141.64 -5.55112e-17
673 2 47.1146 84.4332 -5.55112e-17
674 2 182.476 205.574 -5.55112e-17
675 2 152.405 1.99914 -5.55112e-17
676 1 180.726 159.842 -5.55112e-17
677 2 53.3995 53.3295 -5.55112e-17
678 1 86.9448 113.501 -5.55112e-17
679 1 87.4096 61.4142 -5.55112e-17
680 2 71.7852 13.8975 -5.55112e-17
681 1 5.48194 8.94226 -5.55112e-17
682 1 141.6 171.7 -5.55112e-17
683 2 96.8536 123.782 -5.55112e-17
684 1 23.2126 180.333 -5.55112e-17
685 1 83.9116 206.309 -5.55112e-17
686 1 142.787 159.584 -5.55112e-17
687 1 107.59 52.9129 -5.55112e-17
688 1 151.835 96.9842 -5.55112e-17
689 2 11.161 139.667 -5.55112e-17
690 1 48.3943 121.148 -5.55112e-17
691 2 64.4069 115.354 -5.55112e-17
692 2 180.493 179.254 -5.55112e-17
693 1 161.351 95.9539 -5.55112e-17
694 2 147.609 149.475 -5.55112e-17
695 2 188.251 36.4943 -5.55112e-17
696 2 31.1912 82.7566 -5.55112e-17
697 1 103.902 35.8221 -5.55112e-17
698 2 41.2782 18.7433 -5.55112e-17
699 1 57.0525 203.111 -5.55112e-17
700 2 17.9881 126.371 -5.55112e-17
701 2 29.2765 65.8416 -5.55112e-17
702 1 160.424 9.84058 -5.55112e-17
703 1 196.032 60.335 -5.55112e-17
704 1 159.734 121.682 -5.55112e-17
705 1 43.5505 120.931 -5.55112e-17
706 1 75.4489 161.517 -5.55112e-17
707 1 182.302 66.4651 -5.55112e-17
708 2 195.485 101.481 -5.55112e-17
709 1 54.5689 160.59 -5.55112e-17
710 2 91.5911 16.6419 -5.55112e-17
711 2 0.290455 141.563 -5.55112e-17
712 1 84.0987 213.891 -5.55112e-17
713 1 4.91634 152.603 -5.55112e-17
714 2 145.639 147.345 -5.55112e-17
715 2 132.982 87.0578 -5.55112e-17
716 1 87.027 59.1405 -5.55112e-17
717 1 14.7337 61.3277 -5.55112e-17
718 2 78.6116 100.146 -5.55112e-17
719 1 68.7495 202.875 -5.55112e-17
720 2 52.0517 197.445 -5.55112e-17
721 2 43.7262 213.116 -5.55112e-17
722 2 65.3423 138.219 -5.55112e-17
723 2 15.583 165.702 -5.55112e-17
724 2 202.394 106.903 -5.55112e-17
725 2 22.1162 50.2219 -5.55112e-17
726 2 177.809 122.92 -5.55112e-17
727 2 35.2034 110.072 -5.55112e-17
728 1 176.316 76.8687 -5.55112e-17
729 2 164.684 135.498 -5.55112e-17
730 2 174.957 94.337 -5.55112e-17
731 1 10.3186 23.133 -5.55112e-17
732 2 97.8635 87.0276 -5.55112e-17
733 2 148.375 146.603 -5.55112e-17
734 2 59.2359 192.235 -5.55112e-17
735 2 148.829 71.9796 -5.55112e-17
736 1 182.072 176.988 -5.55112e-17
737 2 48.714 39.7947 -5.55112e-17
738 2 71.5801 208.05 -5.55112e-17
739 2 186.032 130.915 -5.55112e-17
740 2 40.4258 115.974 -5.55112e-17
741 2 200.831 113.696 -5.55112e-17
742 1 71.658 99.0737 -5.55112e-17
743 2 78.4531 76.4105 -5.55112e-17
744 1 146.971 49.9906 -5.55112e-17
745 2 15.9592 75.4938 -5.55112e-17
746 1 0.017348 121.446 -5.55112e-17
747 1 98.5857 162.643 -5.55112e-17
748 2 69.9734 197.456 -5.55112e-17
749 1 213.437 166.458 -5.55112e-17
750 1 139.801 147.673 -5.55112e-17
751 1 143.041 88.836 -5.55112e-17
752 2 194.974 168.406 -5.55112e-17
753 1 37.3339 180.532 -5.55112e-17
754 2 65.4867 81.1398 -5.55112e-17
755 1 5.97831 80.8414 -5.55112e-17
756 2 178.798 58.1632 -5.55112e-17
757 1 111.11 15.4508 -5.55112e-17
758 2 99.5041 28.2441 -5.55112e-17
759 1 95.7578 133.251 -5.55112e-17
760 1 170.965 61.2662 -5.55112e-17
761 2 213.285 101.337 -5.55112e-17
762 1 178.63 106.2 -5.55112e-17
763 2 6.13481 157.717 -5.55112e-17
764 2 43.3511 188.374 -5.55112e-17
765 1 22.0044 160.549 -5.55112e-17
766 2 100.303 48.3239 -5.55112e-17
767 2 206.547 148.616 -5.55112e-17
768 2 71.9339 62.4575 -5.55112e-17
769 2 188.178 98.2848 -5.55112e-17
770 1 133.775 18.42 -5.55112e-17
771 1 63.8346 63.2472 -5.55112e-17
772 1 128.663 0.726018 -5.55112e-17
773 2 166.871 172.374 -5.55112e-17
774 1 88.0267 86.6088 -5.55112e-17
775 1 101.771 75.9459 -5.55112e-17
776 2 192.831 103.101 -5.55112e-17
777 2 42.181 80.4109 -5.55112e-17
778 1 83.6355 12.7106 -5.55112e-17
779 1 47.6667 61.5062 -5.55112e-17
780 2 83.6463 50.3219 -5.55112e-17
781 1 26.2533 171.719 -5.55112e-17
782 2 122.963 170.177 -5.55112e-17
783 1 74.1637 61.6679 -5.55112e-17
784 2 96.1385 111.364 -5.55112e-17
785 1 204.205 82.4401 -5.55112e-17
786 1 41.3316 6.83825 -5.55112e-17
787 2 38.0917 208.588 -5.55112e-17
788 2 164.789 180.862 -5.55112e-17
789 2 18.3667 147.425 -5.55112e-17
790 2 77.4566 8.28319 -5.55112e-17
791 2 186.692 53.727 -5.55112e-17
792 1 213.255 132.617 -5.55112e-17
793 1 97.1885 171.496 -5.55112e-17
794 2 210.122 6.52345 -5.55112e-17
795 2 10.9011 191.391 -5.55112e-17
796 1 69.2962 215.268 -5.55112e-17
797 1 46.3983 32.4856 -5.55112e-17
798 1 213.386 55.4599 -5.55112e-17
799 2 105.985 155.299 -5.55112e-17
800 1 56.5459 37.6076 -5.55112e-17
801 2 67.9154 84.7705 -5.55112e-17
802 1 90.8576 216.589 -5.55112e-17
803 1 143.067 24.9534 -5.55112e-17
804 1 210.265 124.89 -5.55112e-17
805 2 183.792 117.692 -5.55112e-17
806 2 178.535 158.318 -5.55112e-17
807 2 208.228 29.2764 -5.55112e-17
808 2 76.0328 144.54 -5.55112e-17
809 1 175.75 63.075 -5.55112e-17
810 2 24.1541 173.716 -5.55112e-17
811 2 180.346 55.5534 -5.55112e-17
812 1 121.471 184.862 -5.55112e-17
813 1 21.5676 95.8245 -5.55112e-17
814 1 2.6523 204.843 -5.55112e-17
815 1 145.794 32.2588 -5.55112e-17
816 1 206.689 51.1441 -5.55112e-17
817 2 62.8369 70.9555 -5.55112e-17
818 2 29.6127 123.134 -5.55112e-17
819 2 210.657 68.2006 -5.55112e-17
820 1 9.08245 58.9212 -5.55112e-17
821 1 64.8124 58.312 -5.55112e-17
822 2 131.326 34.5959 -5.55112e-17
823 1 183.58 90.0414 -5.55112e-17
824 1 175.591 89.8573 -5.55112e-17
825 1 160.105 191.025 -5.55112e-17
826 2 178.166 82.0157 -5.55112e-17
827 2 102.284 27.2019 -5.55112e-17
828 1 50.5354 91.604 -5.55112e-17
829 2 127.416 92.6383 -5.55112e-17
830 1 3.57559 156.98 -5.55112e-17
831 2 183.384 217.891 -5.55112e-17
832 2 26.9645 52.2737 -5.55112e-17
833 2 96.6408 42.3687 -5.55112e-17
834 1 71.0686 164.464 -5.55112e-17
835 1 184.644 141.056 -5.55112e-17
836 1 152.839 69.4965 -5.55112e-17
837 2 167.631 92.0933 -5.55112e-17
838 2 92.0356 26.829 -5.55112e-17
839 1 38.9681 31.814 -5.55112e-17
840 2 14.1365 117.294 -5.55112e-17
841 2 201.855 10.2319 -5.55112e-17
842 1 174.255 156.789 -5.55112e-17
843 1 205.207 29.8058 -5.55112e-17
844 2 8.82366 25.0858 -5.55112e-17
845 1 46.9122 151.11 -5.55112e-17
846 2 127.337 210.906 -5.55112e-17
847 1 88.4407 143.335 -5.55112e-17
848 2 112.272 9.0018 -5.55112e-17
849 1 24.8995 33.4607 -5.55112e-17
850 2 59.7162 67.5462 -5.55112e-17
851 2 216.319 30.5603 -5.55112e-17
852 1 137.363 183.032 -5.55112e-17
853 1 185.995 104.823 -5.55112e-17
854 2 104.218 144.613 -5.55112e-17
855 2 165.217 120.545 -5.55112e-17
856 1 77.3649 159.992 -5.55112e-17