ITEM: TIMESTEP
0
ITEM: NUMBER OF ATOMS
7200
ITEM: BOX BOUNDS xy xz yz pp pp pp
0.0000000000000000e+00 2.1900000000000000e+02 0.0000000000000000e+00
0.0000000000000000e+00 2.1900000000000000e+02 0.0000000000000000e+00
-3.6499999999999999e-01 3.6499999999999999e-01 0.0000000000000000e+00
ITEM: ATOMS id type x y z
1 1 203.575 66.5341 -5.55112e-17
2 2 120.928 3.64598 -5.55112e-17
3 2 11.7945 131.109 -5.55112e-17
4 1 216.413 160.653 -5.55112e-17
5 1 38.6432 50.8795 -5.55112e-17
6 1 23.1061 90.3901 -5.55112e-17
7 2 134.312 133.163 -5.55112e-17
8 2 0.697916 137.152 -5.55112e-17
9 1 92.2534 109.888 -5.55112e-17
10 2 218.358 30.4248 -5.55112e-17
11 2 122.402 91.3239 -5.55112e-17
12 1 60.5874 73.5917 -5.55112e-17
13 2 113.107 173.316 -5.55112e-17
14 1 89.7836 197.445 -5.55112e-17
15 2 187.6 199.817 -5.55112e-17
16 2 136.46 65.03 -5.55112e-17
17 1 185.884 85.8325 -5.55112e-17
18 2 188.143 153.869 -5.55112e-17
19 1 115.749 58.4113 -5.55112e-17
20 1 149.385 45.1986 -5.55112e-17
21 1 202.122 21.6658 -5.55112e-17
22 2 198.025 123.792 -5.55112e-17
23 2 132.204 194.264 -5.55112e-17
24 2 209.947 122.203 -5.55112e-17
25 2 3.57109 48.821 -5.55112e-17
26 2 191.049 166.478 -5.55112e-17
27 1 61.2268 196.205 -5.55112e-17
28 2 138.536 127.626 -5.55112e-17
29 2 140.09 204.747 -5.55112e-17
30 2 48.0376 165.31 -5.55112e-17
31 2 133.065 143.061 -5.55112e-17
32 1 118.433 20.6684 -5.55112e-17
33 2 101.566 206.692 -5.55112e-17
34 2 107.252 117.974 -5.55112e-17
35 2 205.889 161.147 -5.55112e-17
36 1 153.925 19.838 -5.55112e-17
37 1 177.89 59.1853 -5.55112e-17
38 2 132.305 176.006 -5.55112e-17
39 1 163.935 94.097 -5.55112e-17
40 2 77.0362 81.076 -5.55112e-17
41 1 71.3132 94.4575 -5.55112e-17
42 1 176.774 150.656 -5.55112e-17
43 1 71.3406 195.749 -5.55112e-17
44 1 103.055 1.49652 -5.55112e-17
45 2 103.81 217.591 -5.55112e-17
46 1 189.446 116.2 -5.55112e-17
47 2 19.3479 75.1171 -5.55112e-17
48 2 59.9461 41.67 -5.55112e-17
49 1 65.7252 90.438 -5.55112e-17
50 2 174.171 125.475 -5.55112e-17
51 1 11.3726 144.498 -5.55112e-17
52 1 14.8513 206.311 -5.55112e-17
53 2 162.867 17.1847 -5.55112e-17
54 1 168.394 97.4253 -5.55112e-17
55 2 200.741 23.7964 -5.55112e-17
56 1 54.4501 163.29 -5.55112e-17
57 2 198.759 21.6821 -5.55112e-17
58 1 24.0804 201.035 -5.55112e-17
59 1 10.988 181.583 -5.55112e-17
60 2 34.1556 80.7649 -5.55112e-17
61 1 71.5052 13.2996 -5.55112e-17
62 1 184.363 3.55028 -5.55112e-17
63 2 102.053 26.0535 -5.55112e-17
64 1 177.044 170.076 -5.55112e-17
65 2 13.5001 69.5695 -5.55112e-17
66 2 105.619 185.923 -5.55112e-17
67 2 196.538 75.4807 -5.55112e-17
68 1 37.6487 152.332 -5.55112e-17
69 2 68.9892 175.863 -5.55112e-17
70 1 19.3572 58.6213 -5.55112e-17
71 1 71.1646 141.733 -5.55112e-17
72 2 45.2746 11.7193 -5.55112e-17
73 2 134.484 90.4986 -5.55112e-17
74 2 118.442 76.053 -5.55112e-17
75 1 25.6993 218.817 -5.55112e-17
76 2 217.333 204.543 -5.55112e-17
77 2 209.741 79.0437 -5.55112e-17
78 1 199.895 46.1417 -5.55112e-17
79 2 71.7129 81.3733 -5.55112e-17
80 1 134.155 63.8096 -5.55112e-17
81 1 202.534 141.385 -5.55112e-17
82 1 144.941 181.697 -5.55112e-17
83 1 174.381 44.6628 -5.55112e-17
84 2 153.236 40.5229 -5.55112e-17
85 2 142.306 99.7672 -5.55112e-17
86 2 103.416 111.214 -5.55112e-17
87 2 56.7478 121.307 -5.55112e-17
88 1 2.69351 82.2303 -5.55112e-17
89 2 137.97 70.3707 -5.55112e-17
90 2 148.603 55.1732 -5.55112e-17
91 2 100.064 65.369 -5.55112e-17
92 1 155.294 151.032 -5.55112e-17
93 2 38.864 143.428 -5.55112e-17
94 2 189.272 4.41325 -5.55112e-17
95 1 32.4572 218.846 -5.55112e-17
96 2 135.069 195.449 -5.55112e-17
97 2 49.0757 114.248 -5.55112e-17
98 2 108.476 154.489 -5.55112e-17
99 1 3.81952 202.823 -5.55112e-17
100 2 114.502 137.462 -5.55112e-17
101 1 51.1241 181.112 -5.55112e-17
102 1 149.539 121.447 -5.55112e-17
103 2 128.387 22.7362 -5.55112e-17
104 2 114.836 157.83 -5.55112e-17
105 1 14.4665 138.526 -5.55112e-17
106 1 155.056 81.2074 -5.55112e-17
107 1 118.968 170.542 -5.55112e-17
108 1 94.5527 186.2 -5.55112e-17
109 2 3.90894 142.379 -5.55112e-17
110 2 154.003 43.0881 -5.55112e-17
111 1 104.17 9.57136 -5.55112e-17
112 2 95.3441 78.4173 -5.55112e-17
113 1 172.786 42.9979 -5.55112e-17
114 1 139.158 113.083 -5.55112e-17
115 2 88.0373 199.364 -5.55112e-17
116 2 89.9708 34.2598 -5.55112e-17
117 1 168.649 205.339 -5.55112e-17
118 1 216.739 116.793 -5.55112e-17
119 2 152.978 22.4243 -5.55112e-17
120 2 198.355 40.6679 -5.55112e-17
121 1 146.459 28.8163 -5.55112e-17
122 2 39.2597 79.8436 -5.55112e-17
123 2 164.648 47.634 -5.55112e-17
124 1 211.421 103.179 -5.55112e-17
125 1 60.3181 90.6583 -5.55112e-17
126 2 153.896 4.39382 -5.55112e-17
127 2 89.2679 96.9448 -5.55112e-17
128 1 121.447 129.851 -5.55112e-17
129 1 65.5639 135.034 -5.55112e-17
130 2 3.40721 17.523 -5.55112e-17
131 1 172.829 179.081 -5.55112e-17
132 1 121.13 161.817 -5.55112e-17
133 1 28.2705 43.854 -5.55112e-17
134 1 81.2877 132.479 -5.55112e-17
135 2 108.566 6.44985 -5.55112e-17
136 1 89.9951 99.7633 -5.55112e-17
137 1 68.5088 29.2615 -5.55112e-17
138 2 30.2861 181.503 -5.55112e-17
139 1 148.879 42.8892 -5.55112e-17
140 1 157.278 160.566 -5.55112e-17
141 1 40.2417 145.619 -5.55112e-17
142 1 77.5489 165.864 -5.55112e-17
143 1 56.8283 161.947 -5.55112e-17
144 1 110.516 111.243 -5.55112e-17
145 2 201.482 16.338 -5.55112e-17
146 1 169.29 81.0269 -5.55112e-17
147 2 123.015 181.869 -5.55112e-17
148 1 94.5008 98.271 -5.55112e-17
149 1 94.2838 209.783 -5.55112e-17
150 2 86.3171 96.097 -5.55112e-17
151 1 195.606 138.949 -5.55112e-17
152 1 99.8747 57.5407 -5.55112e-17
153 2 184.141 34.3906 -5.55112e-17
154 1 99.3453 7.07276 -5.55112e-17
155 2 151.482 116.079 -5.55112e-17
156 2 109.585 179.076 -5.55112e-17
157 2 131.959 86.0425 -5.55112e-17
158 2 107.003 57.4334 -5.55112e-17
159 2 10.3342 128.243 -5.55112e-17
160 2 173.993 159.747 -5.55112e-17
161 2 7.89016 55.7777 -5.55112e-17
162 1 63.2806 141.849 -5.55112e-17
163 1 179.512 125.543 -5.55112e-17
164 2 217.499 147.464 -5.55112e-17
165 1 144.948 105.133 -5.55112e-17
166 2 51.8356 160.115 -5.55112e-17
167 1 50.1382 33.4764 -5.55112e-17
168 1 146.977 52.9603 -5.55112e-17
169 2 69.6258 101.332 -5.55112e-17
170 1 119.697 168.317 -5.55112e-17
171 1 165.995 40.3585 -5.55112e-17
172 1 23.6905 63.5522 -5.55112e-17
173 1 103.476 37.9384 -5.55112e-17
174 2 6.41536 17.218 -5.55112e-17
175 2 119.031 164.284 -5.55112e-17
176 1 192.918 87.9689 -5.55112e-17
177 2 217.681 140.037 -5.55112e-17
178 1 20.3611 31.8622 -5.55112e-17
179 2 43.8183 94.4049 -5.55112e-17
180 1 135.871 10.2424 -5.55112e-17
181 1 193.48 57.1772 -5.55112e-17
182 1 165.356 101.001 -5.55112e-17
183 1 115.678 207.301 -5.55112e-17
184 2 201.122 177.523 -5.55112e-17
185 2 177.471 146.052 -5.55112e-17
186 2 2.81687 115.5 -5.55112e-17
187 2 74.9917 33.1876 -5.55112e-17
188 2 70.9026 96.8284 -5.55112e-17
189 1 1.98398 118.183 -5.55112e-17
190 1 105.101 40.7816 -5.55112e-17
191 2 140.223 187.449 -5.55112e-17
192 2 119.182 43.2967 -5.55112e-17
193 1 32.1468 183.123 -5.55112e-17
194 1 94.6297 40.7104 -5.55112e-17
195 2 118.181 120.333 -5.55112e-17
196 1 26.1273 188.094 -5.55112e-17
197 2 134.716 87.4929 -5.55112e-17
198 2 196.155 67.0853 -5.55112e-17
199 2 187.376 33.4552 -5.55112e-17
200 2 211.506 209.886 -5.55112e-17
201 2 8.7367 168.936 -5.55112e-17
202 1 38.6412 106.184 -5.55112e-17
203 1 29.9092 79.3358 -5.55112e-17
204 2 75.8533 24.9741 -5.55112e-17
205 2 196.968 37.4124 -5.55112e-17
206 2 61.4766 109.255 -5.55112e-17
207 1 20.9024 18.3044 -5.55112e-17
208 2 164.807 212.772 -5.55112e-17
209 2 196.844 196.242 -5.55112e-17
210 1 1.9248 19.6617 -5.55112e-17
211 1 211.539 46.8214 -5.55112e-17
212 1 85.8936 93.4139 -5.55112e-17
213 1 21.8126 22.4779 -5.55112e-17
214 2 41.1188 85.1108 -5.55112e-17
215 1 146.456 201.63 -5.55112e-17
216 1 90.2928 25.3534 -5.55112e-17
217 1 47.4738 128.673 -5.55112e-17
218 2 188.676 187.574 -5.55112e-17
219 2 64.9349 130.952 -5.55112e-17
220 1 159.753 180.268 -5.55112e-17
221 2 144.706 45.91 -5.55112e-17
222 1 138.026 23.7067 -5.55112e-17
223 1 119.658 139.103 -5.55112e-17
224 2 196.759 207.457 -5.55112e-17
225 2 53.1917 152.889 -5.55112e-17
226 1 162.54 67.9441 -5.55112e-17
227 2 87.5903 121.506 -5.55112e-17
228 2 3.70334 38.4156 -5.55112e-17
229 1 161.522 217.414 -5.55112e-17
230 1 4.36407 139.877 -5.55112e-17
231 2 58.2973 135.984 -5.55112e-17
232 1 36.5828 8.30044 -5.55112e-17
233 2 99.8508 40.8257 -5.55112e-17
234 1 167.285 148.766 -5.55112e-17
235 1 137.725 212.656 -5.55112e-17
236 2 65.6548 109.837 -5.55112e-17
237 2 122.461 205.265 -5.55112e-17
238 2 42.5643 33.2249 -5.55112e-17
239 1 6.12105 7.82792 -5.55112e-17
240 1 110.674 44.8284 -5.55112e-17
241 2 6.77977 208.3 -5.55112e-17
242 1 197.633 3.73529 -5.55112e-17
243 2 89.513 168.12 -5.55112e-17
244 2 28.646 38.3185 -5.55112e-17
245 1 209.921 113.38 -5.55112e-17
246 2 115.104 216.001 -5.55112e-17
247 2 186.464 193.933 -5.55112e-17
248 1 178.594 34.4597 -5.55112e-17
249 1 131.702 90.877 -5.55112e-17
250 1 34.1735 187.527 -5.55112e-17
251 2 217.359 72.4274 -5.55112e-17
252 1 174.801 185.738 -5.55112e-17
253 2 157.734 146.656 -5.55112e-17
254 2 105.541 209.685 -5.55112e-17
255 2 72.4776 74.1131 -5.55112e-17
256 1 201.211 172.305 -5.55112e-17
257 2 177.728 81.7896 -5.55112e-17
258 1 213.386 170.312 -5.55112e-17
259 2 14.6363 166.643 -5.55112e-17
260 1 83.3623 78.3586 -5.55112e-17
261 2 49.4366 140.434 -5.55112e-17
262 2 165.295 18.5687 -5.55112e-17
263 2 208.149 97.3835 -5.55112e-17
264 1 114.166 101.559 -5.55112e-17
265 1 42.9955 57.522 -5.55112e-17
266 1 67.7737 54.3829 -5.55112e-17
267 2 178.999 27.4298 -5.55112e-17
268 1 213.998 72.018 -5.55112e-17
269 2 50.933 100.077 -5.55112e-17
270 2 102.637 197.42 -5.55112e-17
271 2 30.1431 218.28 -5.55112e-17
272 1 115.168 189.83 -5.55112e-17
273 1 109.678 104.036 -5.55112e-17
274 1 171.287 13.7059 -5.55112e-17
275 1 26.9709 127.545 -5.55112e-17
276 1 24.2465 149.408 -5.55112e-17
277 1 32.9672 116.102 -5.55112e-17
278 2 128.646 26.104 -5.55112e-17
279 2 102.089 192.396 -5.55112e-17
280 1 69.9041 41.7102 -5.55112e-17
281 2 185.386 72.2671 -5.55112e-17
282 2 192.5 125.768 -5.55112e-17
283 2 60.8085 122.343 -5.55112e-17
284 1 130.283 169.806 -5.55112e-17
285 1 147.472 164.825 -5.55112e-17
286 2 125.377 134.501 -5.55112e-17
287 2 153.084 53.5255 -5.55112e-17
288 1 27.3832 132.025 -5.55112e-17
289 2 204.414 32.3067 -5.55112e-17
290 1 65.7727 67.3267 -5.55112e-17
291 2 43.5491 103.678 -5.55112e-17
292 1 118.112 73.4191 -5.55112e-17
293 1 194.609 209.435 -5.55112e-17
294 1 13.6495 20.3283 -5.55112e-17
295 2 200.499 19.5915 -5.55112e-17
296 1 84.9903 178.981 -5.55112e-17
297 1 8.68875 137.855 -5.55112e-17
298 2 178.634 172.273 -5.55112e-17
299 1 19.9785 204.625 -5.55112e-17
300 2 61.6647 46.6722 -5.55112e-17
301 2 92.4176 214.301 -5.55112e-17
302 2 64.7811 208.216 -5.55112e-17
303 1 37.2556 157.437 -5.55112e-17
304 1 130.137 89.4806 -5.55112e-17
305 1 190.142 70.5695 -5.55112e-17
306 2 99.0094 105.208 -5.55112e-17
307 2 143.109 86.3734 -5.55112e-17
308 2 218.17 129.876 -5.55112e-17
309 1 92.2997 153.234 -5.55112e-17
310 1 71.9547 115.114 -5.55112e-17
311 1 209.876 154.742 -5.55112e-17
312 2 19.6785 201.763 -5.55112e-17
313 2 27.4171 214.969 -5.55112e-17
314 1 167.709 52.2588 -5.55112e-17
315 2 134.671 151.205 -5.55112e-17
316 1 147.301 31.549 -5.55112e-17
317 1 143.068 22.6552 -5.55112e-17
318 1 64.7945 181.848 -5.55112e-17
319 2 84.511 133.085 -5.55112e-17
320 1 51.9983 150.321 -5.55112e-17
321 1 198.973 197.969 -5.55112e-17
322 1 201.216 211.065 -5.55112e-17
323 2 79.7176 64.1895 -5.55112e-17
324 2 35.439 200.716 -5.55112e-17
325 2 88.0811 91.7575 -5.55112e-17
326 1 44.8963 151.025 -5.55112e-17
327 1 88.7293 59.3765 -5.55112e-17
328 2 87.1683 10.072 -5.55112e-17
329 2 72.0341 40.5414 -5.55112e-17
330 2 58.3028 179.123 -5.55112e-17
331 2 105.475 198.743 -5.55112e-17
332 2 193.437 170.478 -5.55112e-17
333 2 183.275 44.6633 -5.55112e-17
334 2 158.435 33.2875 -5.55112e-17
335 1 77.0681 22.3808 -5.55112e-17
336 2 170.001 214.787 -5.55112e-17
337 2 42.0802 143.741 -5.55112e-17
338 1 70.3139 44.0109 -5.55112e-17
339 2 173.516 22.1875 -5.55112e-17
340 2 24.6953 156.698 -5.55112e-17
341 2 158.772 77.3833 -5.55112e-17
342 2 114.356 170.594 -5.55112e-17
343 2 151.771 168.601 -5.55112e-17
344 1 176.125 196.359 -5.55112e-17
345 2 161.121 89.4834 -5.55112e-17
346 2 39.4787 29.3512 -5.55112e-17
347 1 142.6 78.3608 -5.55112e-17
348 1 21.3083 25.74 -5.55112e-17
349 2 115.33 184.294 -5.55112e-17
350 2 85.715 119.718 -5.55112e-17
351 1 212.444 79.1645 -5.55112e-17
352 1 201.683 9.54112 -5.55112e-17
353 2 174.293 150.837 -5.55112e-17
354 2 6.94027 160.415 -5.55112e-17
355 1 134.194 26.2927 -5.55112e-17
356 2 61.081 60.9935 -5.55112e-17
357 1 33.224 153.576 -5.55112e-17
358 1 85.9093 151.366 -5.55112e-17
359 1 58.0521 146.65 -5.55112e-17
360 1 140.018 51.6781 -5.55112e-17
361 2 92.1977 53.6843 -5.55112e-17
362 2 208.711 188.352 -5.55112e-17
363 1 10.4462 96.1506 -5.55112e-17
364 2 120.403 197.974 -5.55112e-17
365 1 25.6218 180.138 -5.55112e-17
366 1 216.815 197.521 -5.55112e-17
367 1 172.056 4.76864 -5.55112e-17
368 1 178.916 115.74 -5.55112e-17
369 2 191.964 194.053 -5.55112e-17
370 1 107.233 115.539 -5.55112e-17
371 2 215.853 13.6908 -5.55112e-17
372 1 101.627 38.5724 -5.55112e-17
373 2 47.6211 208.438 -5.55112e-17
374 2 40.0721 11.8194 -5.55112e-17
375 1 8.99618 122.33 -5.55112e-17
376 1 202.09 13.6657 -5.55112e-17
377 2 63.8375 121.249 -5.55112e-17
378 2 14.287 16.186 -5.55112e-17
379 2 167.388 162.903 -5.55112e-17
380 1 165.434 176.249 -5.55112e-17
381 1 216.65 127.858 -5.55112e-17
382 1 93.4471 66.6885 -5.55112e-17
383 1 6.58337 136.606 -5.55112e-17
384 2 184.067 27.018 -5.55112e-17
385 1 8.59726 41.5568 -5.55112e-17
386 2 8.23586 190.746 -5.55112e-17
387 1 204.917 200.494 -5.55112e-17
388 1 20.033 154.661 -5.55112e-17
389 2 145.058 107.72 -5.55112e-17
390 1 166.633 23.614 -5.55112e-17
391 1 177.655 10.2598 -5.55112e-17
392 2 102.679 41.0359 -5.55112e-17
393 2 107.539 196.82 -5.55112e-17
394 1 168.278 180.725 -5.55112e-17
395 1 158.415 118.545 -5.55112e-17
396 2 102.05 83.849 -5.55112e-17
397 1 16.7024 138.585 -5.55112e-17
398 2 42.0906 190.117 -5.55112e-17
399 2 31.1795 122.042 -5.55112e-17
400 2 16.6098 158.578 -5.55112e-17
401 2 61.2205 88.0581 -5.55112e-17
402 1 81.3722 22.8716 -5.55112e-17
403 1 15.8416 26.702 -5.55112e-17
404 2 155.316 68.9802 -5.55112e-17
405 1 212.946 13.6984 -5.55112e-17
406 2 50.3222 122.855 -5.55112e-17
407 1 157.779 210.579 -5.55112e-17
408 1 129.32 28.9551 -5.55112e-17
409 2 149.829 76.1178 -5.55112e-17
410 2 199.664 91.2932 -5.55112e-17
411 1 32.3447 83.9908 -5.55112e-17
412 1 155.298 160.085 -5.55112e-17
413 1 170.569 43.3013 -5.55112e-17
414 2 137.938 8.78663 -5.55112e-17
415 1 161.305 61.1334 -5.55112e-17
416 1 75.4734 140.177 -5.55112e-17
417 2 121.637 117.018 -5.55112e-17
418 2 110.201 173.612 -5.55112e-17
419 2 150.394 40.8328 -5.55112e-17
420 2 213.742 109.84 -5.55112e-17
421 1 63.5455 111.111 -5.55112e-17
422 1 130.647 24.3388 -5.55112e-17
423 2 120.873 159.402 -5.55112e-17
424 2 63.6899 69.4295 -5.55112e-17
425 2 162.089 56.6331 -5.55112e-17
426 1 140.244 192.967 -5.55112e-17
427 2 170.698 37.6006 -5.55112e-17
428 1 108.418 194.185 -5.55112e-17
429 2 50.3156 11.6496 -5.55112e-17
430 2 56.3916 156.233 -5.55112e-17
431 1 206.776 102.754 -5.55112e-17
432 2 76.7031 39.1884 -5.55112e-17
433 1 6.44313 122.161 -5.55112e-17
434 1 147.134 88.5879 -5.55112e-17
435 1 129.363 131.626 -5.55112e-17
436 2 2.04765 59.1067 -5.55112e-17
437 2 189.742 171.03 -5.55112e-17
438 2 52.8847 110.22 -5.55112e-17
439 2 42.8175 182.38 -5.55112e-17
440 2 180.061 47.2071 -5.55112e-17
441 1 160.943 70.1186 -5.55112e-17
442 1 151.505 35.1974 -5.55112e-17
443 2 161.553 126.29 -5.55112e-17
444 1 121.222 184.029 -5.55112e-17
445 1 34.4587 83.5063 -5.55112e-17
446 2 75.9832 108.333 -5.55112e-17
447 2 211.056 160.583 -5.55112e-17
448 2 51.1635 188.429 -5.55112e-17
449 1 142.523 97.1416 -5.55112e-17
450 1 184.46 96.8249 -5.55112e-17
451 1 166.242 138.97 -5.55112e-17
452 2 135.07 192.411 -5.55112e-17
453 1 164.543 126.883 -5.55112e-17
454 1 146.58 63.9154 -5.55112e-17
455 2 156.476 40.8082 -5.55112e-17
456 1 151.789 11.1353 -5.55112e-17
457 2 140.773 202.046 -5.55112e-17
458 2 85.7429 154.355 -5.55112e-17
459 2 67.6472 147.581 -5.55112e-17
460 1 6.45864 138.576 -5.55112e-17
461 1 129.46 207.227 -5.55112e-17
462 1 164.411 190.789 -5.55112e-17
463 2 79.6943 190.819 -5.55112e-17
464 2 120.183 60.5884 -5.55112e-17
465 1 76.3466 47.1001 -5.55112e-17
466 2 22.5201 130.422 -5.55112e-17
467 2 207.481 201.354 -5.55112e-17
468 2 207.832 169.165 -5.55112e-17
469 2 189.336 64.8856 -5.55112e-17
470 2 166.914 215.335 -5.55112e-17
471 2 106.055 38.35 -5.55112e-17
472 2 52.0318 113.061 -5.55112e-17
473 2 12.2137 62.2657 -5.55112e-17
474 2 204.692 143.012 -5.55112e-17
475 1 51.9527 116.053 -5.55112e-17
476 2 109.44 49.7975 -5.55112e-17
477 1 156.137 218.147 -5.55112e-17
478 1 111.958 13.3683 -5.55112e-17
479 2 46.5959 190.732 -5.55112e-17
480 1 26.015 106.976 -5.55112e-17
481 1 211.785 98.7928 -5.55112e-17
482 2 52.0785 170.939 -5.55112e-17
483 1 139.638 134.731 -5.55112e-17
484 1 2.85552 0.131728 -5.55112e-17
485 2 146.195 59.5647 -5.55112e-17
486 1 201.243 56.298 -5.55112e-17
487 1 134.553 174.612 -5.55112e-17
488 1 47.9218 203.193 -5.55112e-17
489 1 41.7833 24.9998 -5.55112e-17
490 1 136.565 158.515 -5.55112e-17
491 1 92.0192 9.70078 -5.55112e-17
492 2 171.908 132.713 -5.55112e-17
493 1 127.95 88.8736 -5.55112e-17
494 2 22.0686 86.3108 -5.55112e-17
495 1 46.4131 93.6276 -5.55112e-17
496 1 41.6342 196.602 -5.55112e-17
497 1 76.6786 2.92088 -5.55112e-17
498 2 153.264 125.572 -5.55112e-17
499 2 170.409 61.6698 -5.55112e-17
500 2 89.1914 133.767 -5.55112e-17
501 2 135.74 53.019 -5.55112e-17
502 2 181.974 169.007 -5.55112e-17
503 2 190.222 88.9537 -5.55112e-17
504 2 22.0363 38.0679 -5.55112e-17
505 2 129.979 180.182 -5.55112e-17
506 1 94.506 182.105 -5.55112e-17
507 2 182.371 67.9546 -5.55112e-17
508 1 195.928 122.518 -5.55112e-17
509 1 197.441 152.912 -5.55112e-17
510 1 68.3848 141.528 -5.55112e-17
511 2 5.00165 105.774 -5.55112e-17
512 1 134.213 121.548 -5.55112e-17
513 2 12.2526 22.7317 -5.55112e-17
514 2 163.062 171.536 -5.55112e-17
515 1 176.081 65.6069 -5.55112e-17
516 2 42.7281 123.713 -5.55112e-17
517 1 78.4514 128.887 -5.55112e-17
518 2 35.3038 151.197 -5.55112e-17
519 1 26.7479 2.6072 -5.55112e-17
520 2 182.84 12.0692 -5.55112e-17
521 2 125.451 95.4432 -5.55112e-17
522 1 147.122 199.486 -5.55112e-17
523 1 197.191 33.205 -5.55112e-17
524 2 55.534 24.1888 -5.55112e-17
525 2 15.5583 18.6422 -5.55112e-17
526 2 46.5179 111.286 -5.55112e-17
527 1 66.4546 126.244 -5.55112e-17
528 1 83.794 192.676 -5.55112e-17
529 2 129.698 62.0514 -5.55112e-17
530 2 175.581 157.015 -5.55112e-17
531 2 213.872 174.674 -5.55112e-17
532 1 146.226 19.4126 -5.55112e-17
533 2 7.43255 0.374871 -5.55112e-17
534 1 182.328 42.0292 -5.55112e-17
535 1 66.2569 143.997 -5.55112e-17
536 2 63.4433 144.717 -5.55112e-17
537 1 29.8575 139.935 -5.55112e-17
538 1 11.5467 161.853 -5.55112e-17
539 2 40.2038 212.287 -5.55112e-17
540 1 24.445 195.186 -5.55112e-17
541 1 42.0154 96.7085 -5.55112e-17
542 1 99.067 161.76 -5.55112e-17
543 2 57.1203 36.467 -5.55112e-17
544 1 155.489 54.3721 -5.55112e-17
545 1 9.52707 74.2907 -5.55112e-17
546 2 125.758 183.036 -5.55112e-17
547 1 145.883 68.5641 -5.55112e-17
548 1 108.437 171.739 -5.55112e-17
549 2 62.7603 57.0152 -5.55112e-17
550 2 76.5739 100.22 -5.55112e-17
551 2 144.317 139.03 -5.55112e-17
552 1 142.351 131.659 -5.55112e-17
553 2 22.0301 212.527 -5.55112e-17
554 2 113.55 148.151 -5.55112e-17
555 2 167.51 7.07053 -5.55112e-17
556 1 100.753 209.174 -5.55112e-17
557 1 63.5026 205.57 -5.55112e-17
558 1 121.14 149.957 -5.55112e-17
559 2 118.004 113.67 -5.55112e-17
560 2 125.153 180.048 -5.55112e-17
561 2 154.493 148.526 -5.55112e-17
562 2 130.283 149.208 -5.55112e-17
563 1 129.373 106.785 -5.55112e-17
564 2 69.3445 197.435 -5.55112e-17
565 2 125.377 67.8235 -5.55112e-17
566 2 145.037 14.8171 -5.55112e-17
567 1 185.083 208.223 -5.55112e-17
568 1 115.061 32.3227 -5.55112e-17
569 2 192.883 162.077 -5.55112e-17
570 2 165.751 68.583 -5.55112e-17
571 2 204.833 116.927 -5.55112e-17
572 1 114.547 23.3485 -5.55112e-17
573 2 136.814 112.976 -5.55112e-17
574 2 91.2049 59.5932 -5.55112e-17
575 1 156.717 195.239 -5.55112e-17
576 1 154.947 38.7826 -5.55112e-17
577 1 28.5408 41.6361 -5.55112e-17
578 1 199.599 218.721 -5.55112e-17
579 2 77.7479 33.4159 -5.55112e-17
580 1 93.7782 130.745 -5.55112e-17
581 1 8.82854 162.036 -5.55112e-17
582 2 182.231 95.783 -5.55112e-17
583 2 15.683 103.301 -5.55112e-17
584 2 151.984 150.805 -5.55112e-17
585 1 58.6378 14.6908 -5.55112e-17
586 1 31.0978 64.3093 -5.55112e-17
587 1 193.42 42.9165 -5.55112e-17
588 2 118.777 68.5698 -5.55112e-17
589 1 98.1673 61.2878 -5.55112e-17
590 2 143.046 153.568 -5.55112e-17
591 2 205.103 69.2732 -5.55112e-17
592 1 88.0523 111.427 -5.55112e-17
593 1 0.356036 212.694 -5.55112e-17
594 1 89.9163 90.0674 -5.55112e-17
595 1 38.62 84.5109 -5.55112e-17
596 2 149.466 130.721 -5.55112e-17
597 2 53.4178 44.9029 -5.55112e-17
598 2 127.242 200.771 -5.55112e-17
599 2 44.7373 216.086 -5.55112e-17
600 2 69.0571 33.946 -5.55112e-17
601 1 71.6812 117.433 -5.55112e-17
602 1 197.856 167.377 -5.55112e-17
603 2 172.292 31.6744 -5.55112e-17
604 1 96.4121 123.955 -5.55112e-17
605 2 66.3715 120.079 -5.55112e-17
606 2 39.9966 125.286 -5.55112e-17
607 2 71.8173 127.434 -5.55112e-17
608 2 24.9165 53.0808 -5.55112e-17
609 1 185.523 129.407 -5.55112e-17
610 2 196.984 50.1224 -5.55112e-17
611 1 183.047 85.5957 -5.55112e-17
612 1 157.399 67.4324 -5.55112e-17
613 2 127.116 137.352 -5.55112e-17
614 1 64.1283 153.686 -5.55112e-17
615 1 144.441 155.495 -5.55112e-17
616 2 61.9557 203.554 -5.55112e-17
617 1 2.59812 216.352 -5.55112e-17
618 1 17.4775 194.52 -5.55112e-17
619 1 150.299 84.7683 -5.55112e-17
620 2 25.7232 90.0813 -5.55112e-17
621 2 7.32033 109.837 -5.55112e-17
622 2 184.842 161.819 -5.55112e-17
623 2 28.2566 53.7049 -5.55112e-17
624 1 66.3314 69.5495 -5.55112e-17
625 2 66.5336 116.803 -5.55112e-17
626 1 37.1048 1.00085 -5.55112e-17
627 2 113.124 28.3609 -5.55112e-17
628 1 59.8772 193.718 -5.55112e-17
629 1 92.4403 112.472 -5.55112e-17
630 2 162.502 136.05 -5.55112e-17
631 2 86.3496 85.2449 -5.55112e-17
632 2 213.273 33.6069 -5.55112e-17
633 2 149.251 215.394 -5.55112e-17
634 2 63.2114 95.065 -5.55112e-17
635 2 92.3957 132.855 -5.55112e-17
636 1 118.497 136.637 -5.55112e-17
637 1 125.221 177.163 -5.55112e-17
638 1 109.092 42.8105 -5.55112e-17
639 2 167.997 155.05 -5.55112e-17
640 2 35.0054 210.177 -5.55112e-17
641 1 218.067 32.9575 -5.55112e-17
642 2 50.7596 86.8064 -5.55112e-17
643 1 143.73 160.899 -5.55112e-17
644 2 152.115 144.283 -5.55112e-17
645 2 23.2823 218.09 -5.55112e-17
646 1 210.915 137.736 -5.55112e-17
647 2 138.949 26.0011 -5.55112e-17
648 2 69.4686 83.5468 -5.55112e-17
649 1 83.9468 20.4109 -5.55112e-17
650 1 116.22 218.417 -5.55112e-17
651 1 80.985 52.1512 -5.55112e-17
652 2 75.6248 87.9947 -5.55112e-17
653 2 128.015 14.8578 -5.55112e-17
654 1 177.71 20.0624 -5.55112e-17
655 1 213.891 81.1552 -5.55112e-17
656 1 200.766 133.776 -5.55112e-17
657 1 112.544 87.2282 -5.55112e-17
658 2 131.588 161.65 -5.55112e-17
659 2 91.5873 1.21726 -5.55112e-17
660 1 195.611 127.119 -5.55112e-17
661 2 178.853 62.0625 -5.55112e-17
662 2 147.295 125.98 -5.55112e-17
663 1 196.378 178.977 -5.55112e-17
664 1 185.447 10.4278 -5.55112e-17
665 1 160.873 10.3817 -5.55112e-17
666 1 170.076 142.802 -5.55112e-17
667 1 3.927 185.936 -5.55112e-17
668 1 28.4213 20.8508 -5.55112e-17
669 1 98.5108 0.240011 -5.55112e-17
670 2 67.8221 199.964 -5.55112e-17
671 1 168.719 178.703 -5.55112e-17
672 1 204.007 56.7848 -5.55112e-17
673 2 88.0564 49.1946 -5.55112e-17
674 2 33.9229 16.2674 -5.55112e-17
675 2 109.849 76.3787 -5.55112e-17
676 1 200.703 146.993 -5.55112e-17
677 2 194.039 63.9481 -5.55112e-17
678 1 215.769 188.977 -5.55112e-17
679 1 32.2765 196.687 -5.55112e-17
680 2 100.238 151.569 -5.55112e-17
681 1 78.4082 124.759 -5.55112e-17
682 1 124.756 200.195 -5.55112e-17
683 2 166.462 199.881 -5.55112e-17
684 1 132.981 43.0791 -5.55112e-17
685 1 118.412 103.947 -5.55112e-17
686 1 177.747 97.5649 -5.55112e-17
687 1 32.5078 53.8094 -5.55112e-17
688 1 135.734 190.065 -5.55112e-17
689 2 92.0263 84.4397 -5.55112e-17
690 1 149.491 198.156 -5.55112e-17
691 2 9.79921 77.4145 -5.55112e-17
692 2 208.634 152.429 -5.55112e-17
693 1 112.84 36.1434 -5.55112e-17
694 2 31.4442 199.682 -5.55112e-17
695 2 151.609 196.22 -5.55112e-17
696 2 191.679 107.221 -5.55112e-17
697 1 201.477 86.0721 -5.55112e-17
698 2 20.1495 78.432 -5.55112e-17
699 1 185.594 139.013 -5.55112e-17
700 2 80.4766 175.352 -5.55112e-17
701 2 208.967 71.5903 -5.55112e-17
702 1 205.795 126.265 -5.55112e-17
703 1 64.9021 64.8674 -5.55112e-17
704 1 47.7954 49.3755 -5.55112e-17
705 1 94.4871 43.094 -5.55112e-17
706 1 212.008 41.3694 -5.55112e-17
707 1 83.4758 197.447 -5.55112e-17
708 2 67.3796 192.958 -5.55112e-17
709 1 1.01587 183.855 -5.55112e-17
710 2 168.703 114.328 -5.55112e-17
711 2 107.428 144.978 -5.55112e-17
712 1 18.399 175.531 -5.55112e-17
713 1 32.5506 26.8222 -5.55112e-17
714 2 30.7344 32.9555 -5.55112e-17
715 2 41.9988 110.104 -5.55112e-17
716 1 97.1581 159.258 -5.55112e-17
717 1 134.209 124.478 -5.55112e-17
718 2 110.802 149.153 -5.55112e-17
719 1 42.1002 192.54 -5.55112e-17
720 2 200.754 111.051 -5.55112e-17
721 2 65.779 71.8307 -5.55112e-17
722 2 30.4419 7.18169 -5.55112e-17
723 2 218.872 210.052 -5.55112e-17
724 2 146.022 153.126 -5.55112e-17
725 2 22.8123 49.0507 -5.55112e-17
726 2 141.38 114.367 -5.55112e-17
727 2 16.0291 55.3763 -5.55112e-17
728 1 27.8174 141.255 -5.55112e-17
729 2 162.935 104.606 -5.55112e-17
730 2 165.596 193.291 -5.55112e-17
731 1 132.377 88.7539 -5.55112e-17
732 2 201.92 74.3438 -5.55112e-17
733 2 43.2417 106.86 -5.55112e-17
734 2 75.3403 66.9027 -5.55112e-17
735 2 200.09 165.164 -5.55112e-17
736 1 191.855 52.9349 -5.55112e-17
737 2 187.47 182.369 -5.55112e-17
738 2 157.024 82.8742 -5.55112e-17
739 2 94.2811 86.7592 -5.55112e-17
740 2 85.0977 163.351 -5.55112e-17
741 2 66.8578 105.293 -5.55112e-17
742 1 144.694 4.44032 -5.55112e-17
743 2 157.434 74.6518 -5.55112e-17
744 1 136.423 153.064 -5.55112e-17
745 2 173.824 36.3709 -5.55112e-17
746 1 49.0723 130.577 -5.55112e-17
747 1 66.4347 132.967 -5.55112e-17
748 2 114.363 106.469 -5.55112e-17
749 1 163.873 218.561 -5.55112e-17
750 1 17.2719 149.76 -5.55112e-17
751 1 214.352 153.964 -5.55112e-17
752 2 64.6136 36.4395 -5.55112e-17
753 1 180.725 76.2091 -5.55112e-17
754 2 175.791 60.4046 -5.55112e-17
755 1 95.5512 184.288 -5.55112e-17
756 2 147.27 188.449 -5.55112e-17
757 1 203.365 171.265 -5.55112e-17
758 2 202.396 201.464 -5.55112e-17
759 1 140.138 10.9794 -5.55112e-17
760 1 76.4066 30.8315 -5.55112e-17
761 2 74.3815 137.372 -5.55112e-17
762 1 218.751 103.352 -5.55112e-17
763 2 61.0733 134.884 -5.55112e-17
764 2 72.986 208.861 -5.55112e-17
765 1 215.344 166.944 -5.55112e-17
766 2 196.979 0.62299 -5.55112e-17
767 2 120.042 81.0216 -5.55112e-17
768 2 160.167 58.8314 -5.55112e-17
769 2 39.0567 133.652 -5.55112e-17
770 1 94.5624 159.203 -5.55112e-17
771 1 110.842 59.8348 -5.55112e-17
772 1 104.827 14.6483 -5.55112e-17
773 2 57.365 173.538 -5.55112e-17
774 1 213.491 97.1411 -5.55112e-17
775 1 178.549 195.325 -5.55112e-17
776 2 169.922 210.042 -5.55112e-17
777 2 101.346 136.295 -5.55112e-17
778 1 8.63788 112.203 -5.55112e-17
779 1 25.7329 102.721 -5.55112e-17
780 2 189.442 177.446 -5.55112e-17
781 1 56.6163 218.297 -5.55112e-17
782 2 176.329 29.6048 -5.55112e-17
783 1 33.0316 6.3435 -5.55112e-17
784 2 99.3895 154.396 -5.55112e-17
785 1 20.4806 135.816 -5.55112e-17
786 1 127.495 178.469 -5.55112e-17
787 2 147.772 50.5876 -5.55112e-17
788 2 15.3992 91.4166 -5.55112e-17
789 2 82.3891 179.523 -5.55112e-17
790 2 210.793 186.282 -5.55112e-17
791 2 152.583 160.994 -5.55112e-17
792 1 189.718 40.0455 -5.55112e-17
793 1 166.623 20.8435 -5.55112e-17
794 2 59.6744 21.3342 -5.55112e-17
795 2 100.914 102.509 -5.55112e-17
796 1 19.5292 63.5843 -5.55112e-17
797 1 3.45252 183.658 -5.55112e-17
798 1 158.85 178.376 -5.55112e-17
799 2 131.308 108.168 -5.55112e-17
800 1 32.6216 156.179 -5.55112e-17
801 2 19.8561 193.4 -5.55112e-17
802 1 166.615 87.607 -5.55112e-17
803 1 38.5191 114.642 -5.55112e-17
804 1 205.079 112.169 -5.55112e-17
805 2 4.9094 2.00517 -5.55112e-17
806 2 130.827 101.702 -5.55112e-17
807 2 127.412 93.2318 -5.55112e-17
808 2 138.42 147.518 -5.55112e-17
809 1 40.0357 118.662 -5.55112e-17
810 2 113.257 59.523 -5.55112e-17
811 2 171.16 191.581 -5.55112e-17
812 1 173.106 206.099 -5.55112e-17
813 1 127.279 170.707 -5.55112e-17
814 1 157.804 95.1426 -5.55112e-17
815 1 152.519 120.394 -5.55112e-17
816 1 148.957 115.161 -5.55112e-17
817 2 171.469 76.6259 -5.55112e-17
818 2 98.3061 67.6387 -5.55112e-17
819 2 152.909 70.8939 -5.55112e-17
820 1 80.4084 188.162 -5.55112e-17
821 1 167 146.59 -5.55112e-17
822 2 112.652 33.4261 -5.55112e-17
823 1 33.1522 42.7709 -5.55112e-17
824 1 74.7491 205.99 -5.55112e-17
825 1 112.517 166.333 -5.55112e-17
826 2 32.6977 119.405 -5.55112e-17
827 2 47.6401 121.352 -5.55112e-17
828 1 141.834 139.157 -5.55112e-17
829 2 210.964 106.531 -5.55112e-17
830 1 109.106 176.228 -5.55112e-17
831 2 173.727 72.1882 -5.55112e-17
832 2 121.099 141.729 -5.55112e-17
833 2 135.24 177.048 -5.55112e-17
834 1 202.846 99.0817 -5.55112e-17
835 1 171.337 93.3298 -5.55112e-17
836 1 62.8304 38.3 -5.55112e-17
837 2 18.5692 212.3 -5.55112e-17
838 2 111.734 80.8683 -5.55112e-17
839 1 114.218 76.6372 -5.55112e-17
840 2 77.7352 189.22 -5.55112e-17
841 2 153.184 67.5807 -5.55112e-17
842 1 22.0594 33.3962 -5.55112e-17
843 1 93.7574 13.7251 -5.55112e-17
844 2 88.8285 61.9824 -5.55112e-17
845 1 15.7585 136.604 -5.55112e-17
846 2 65.7752 123.602 -5.55112e-17
847 1 121.26 58.4189 -5.55112e-17
848 2 100.193 182.519 -5.55112e-17
849 1 30.3172 66.3513 -5.55112e-17
850 2 149.717 81.9029 -5.55112e-17
851 2 133.413 31.8917 -5.55112e-17
852 1 152.946 58.7279 -5.55112e-17
853 1 127.511 8.01983 -5.55112e-17
854 2 45.3559 58.345 -5.55112e-17
855 2 16.0446 197.17 -5.55112e-17
856 1 54.3665 160.866 -5.55112e-17