ITEM: TIMESTEP
0
ITEM: NUMBER OF ATOMS
7200
ITEM: BOX BOUNDS xy xz yz pp pp pp
0.0000000000000000e+00 2.1900000000000000e+02 0.0000000000000000e+00
0.0000000000000000e+00 2.1900000000000000e+02 0.0000000000000000e+00
-3.6499999999999999e-01 3.6499999999999999e-01 0.0000000000000000e+00
ITEM: ATOMS id type x y z
1 1 183.095 14.4765 -5.55112e-17
2 2 198.981 178.498 -5.55112e-17
3 2 139.695 186.49 -5.55112e-17
4 1 122.968 110.547 -5.55112e-17
5 1 98.3203 119.693 -5.55112e-17
6 1 105.406 23.6958 -5.55112e-17
7 2 163.941 124.49 -5.55112e-17
8 2 72.5015 21.1468 -5.55112e-17
9 1 20.1334 207.788 -5.55112e-17
10 2 55.2472 167.198 -5.55112e-17
11 2 213.762 95.3007 -5.55112e-17
12 1 32.6024 189.519 -5.55112e-17
13 2 187.135 64.9893 -5.55112e-17
14 1 54.289 177.251 -5.55112e-17
15 2 193.461 1.54189 -5.55112e-17
16 2 214.991 87.9891 -5.55112e-17
17 1 71.8437 74.5721 -5.55112e-17
18 2 9.22062 171.473 -5.55112e-17
19 1 91.2372 129.801 -5.55112e-17
20 1 64.987 22.0232 -5.55112e-17
21 1 152.224 12.6113 -5.55112e-17
22 2 26.9747 213.548 -5.55112e-17
23 2 43.0883 208.395 -5.55112e-17
24 2 0.128843 100.137 -5.55112e-17
25 2 15.8821 193.867 -5.55112e-17
26 2 154.471 19.3611 -5.55112e-17
27 1 215.106 161.504 -5.55112e-17
28 2 52.7656 156.09 -5.55112e-17
29 2 81.5004 0.254142 -5.55112e-17
30 2 129.661 40.2698 -5.55112e-17
31 2 157.028 84.4227 -5.55112e-17
32 1 40.8857 123.519 -5.55112e-17
33 2 145.522 88.2344 -5.55112e-17
34 2 22.293 108.133 -5.55112e-17
35 2 116.267 18.2062 -5.55112e-17
36 1 160.597 146.384 -5.55112e-17
37 1 135.346 184.78 -5.55112e-17
38 2 207.301 156.973 -5.55112e-17
39 1 12.6152 43.6682 -5.55112e-17
40 2 200.621 71.9629 -5.55112e-17
41 1 201.326 80.775 -5.55112e-17
42 1 63.5682 62.7737 -5.55112e-17
43 1 212.799 131.013 -5.55112e-17
44 1 152.803 186.944 -5.55112e-17
45 2 159.65 61.2722 -5.55112e-17
46 1 125.167 192.804 -5.55112e-17
47 2 89.1745 70.2445 -5.55112e-17
48 2 148.638 124.485 -5.55112e-17
49 1 194.404 201.899 -5.55112e-17
50 2 28.9851 46.9965 -5.55112e-17
51 1 186.959 4.23807 -5.55112e-17
52 1 92.5145 59.9504 -5.55112e-17
53 2 57.0325 192.577 -5.55112e-17
54 1 35.5151 13.9697 -5.55112e-17
55 2 52.7335 142.793 -5.55112e-17
56 1 30.1072 133.205 -5.55112e-17
57 2 57.7789 134.044 -5.55112e-17
58 1 175.825 56.4728 -5.55112e-17
59 1 157.93 86.9055 -5.55112e-17
60 2 207.245 59.6427 -5.55112e-17
61 1 163.25 155.198 -5.55112e-17
62 1 104.075 107.54 -5.55112e-17
63 2 110.852 33.7644 -5.55112e-17
64 1 29.9248 18.3426 -5.55112e-17
65 2 155.499 147.474 -5.55112e-17
66 2 9.60668 155.94 -5.55112e-17
67 2 182.48 106.837 -5.55112e-17
68 1 137.162 83.5476 -5.55112e-17
69 2 107.479 166.921 -5.55112e-17
70 1 141.844 98.7274 -5.55112e-17
71 1 208.113 143.532 -5.55112e-17
72 2 43.4049 158.28 -5.55112e-17
73 2 186.99 194.508 -5.55112e-17
74 2 117.106 57.4886 -5.55112e-17
75 1 9.30784 132.906 -5.55112e-17
76 2 137.895 208.144 -5.55112e-17
77 2 159.637 9.39625 -5.55112e-17
78 1 89.916 213.195 -5.55112e-17
79 2 62.3323 75.9155 -5.55112e-17
80 1 52.4249 30.9673 -5.55112e-17
81 1 181.869 212.686 -5.55112e-17
82 1 180.135 36.7221 -5.55112e-17
83 1 73.9459 90.2554 -5.55112e-17
84 2 139.479 181.398 -5.55112e-17
85 2 148.301 144.648 -5.55112e-17
86 2 52.5357 68.1612 -5.55112e-17
87 2 36.7564 86.8847 -5.55112e-17
88 1 76.5912 159.945 -5.55112e-17
89 2 199.761 105.725 -5.55112e-17
90 2 124.16 34.1524 -5.55112e-17
91 2 11.5048 180.382 -5.55112e-17
92 1 21.6269 211.692 -5.55112e-17
93 2 110.485 153.785 -5.55112e-17
94 2 113.424 146.819 -5.55112e-17
95 1 212.286 52.0128 -5.55112e-17
96 2 28.6589 62.6182 -5.55112e-17
97 2 5.66984 209.322 -5.55112e-17
98 2 31.3692 187.173 -5.55112e-17
99 1 114.496 6.77223 -5.55112e-17
100 2 158.983 65.6973 -5.55112e-17
101 1 164.96 108.925 -5.55112e-17
102 1 65.2331 164.197 -5.55112e-17
103 2 201.591 95.9264 -5.55112e-17
104 2 93.7991 54.7152 -5.55112e-17
105 1 158.155 41.6663 -5.55112e-17
106 1 195.317 60.0996 -5.55112e-17
107 1 217.538 102.451 -5.55112e-17
108 1 64.406 209.904 -5.55112e-17
109 2 216.91 38.0504 -5.55112e-17
110 2 145.155 29.5687 -5.55112e-17
111 1 56.2245 92.936 -5.55112e-17
112 2 7.31099 47.9644 -5.55112e-17
113 1 137.024 4.44485 -5.55112e-17
114 1 90.5661 93.7527 -5.55112e-17
115 2 39.1535 70.7825 -5.55112e-17
116 2 184.645 16.8596 -5.55112e-17
117 1 155.399 114.714 -5.55112e-17
118 1 85.8084 92.1084 -5.55112e-17
119 2 98.8399 138.239 -5.55112e-17
120 2 202.487 60.4457 -5.55112e-17
121 1 204.29 140.979 -5.55112e-17
122 2 145 132.475 -5.55112e-17
123 2 3.21968 130.269 -5.55112e-17
124 1 162.746 204.97 -5.55112e-17
125 1 88.4253 188.163 -5.55112e-17
126 2 82.9544 76.0349 -5.55112e-17
127 2 209.45 109.581 -5.55112e-17
128 1 121.761 105.651 -5.55112e-17
129 1 141.531 188.584 -5.55112e-17
130 2 115.174 62.4879 -5.55112e-17
131 1 113.396 45.4209 -5.55112e-17
132 1 140.505 20.8993 -5.55112e-17
133 1 180.009 105.434 -5.55112e-17
134 1 83.4859 189.073 -5.55112e-17
135 2 179.568 66.6182 -5.55112e-17
136 1 184.998 122.973 -5.55112e-17
137 1 64.5435 8.94226 -5.55112e-17
138 2 149.152 157.239 -5.55112e-17
139 1 123.829 7.53038 -5.55112e-17
140 1 140.227 212.276 -5.55112e-17
141 1 53.1656 70.5765 -5.55112e-17
142 1 209.002 201.528 -5.55112e-17
143 1 27.1729 29.0606 -5.55112e-17
144 1 49.343 98.4388 -5.55112e-17
145 2 196.014 78.6097 -5.55112e-17
146 1 161.865 125.916 -5.55112e-17
147 2 17.4576 135.305 -5.55112e-17
148 1 23.0777 133.58 -5.55112e-17
149 1 151.442 196.862 -5.55112e-17
150 2 62.4372 52.4062 -5.55112e-17
151 1 128.208 138.909 -5.55112e-17
152 1 165.547 154.177 -5.55112e-17
153 2 119.967 130.633 -5.55112e-17
154 1 187.983 60.0037 -5.55112e-17
155 2 204.402 42.8519 -5.55112e-17
156 2 104.195 188.992 -5.55112e-17
157 2 169.344 25.2588 -5.55112e-17
158 2 28.6127 7.12657 -5.55112e-17
159 2 10.2214 159.03 -5.55112e-17
160 2 110.068 54.1604 -5.55112e-17
161 2 134.838 129.947 -5.55112e-17
162 1 16.9124 68.6765 -5.55112e-17
163 1 182.606 44.5964 -5.55112e-17
164 2 112.442 131.748 -5.55112e-17
165 1 51.3142 72.5461 -5.55112e-17
166 2 12.7616 201.309 -5.55112e-17
167 1 105.644 169.029 -5.55112e-17
168 1 208.891 102.563 -5.55112e-17
169 2 103.95 204.343 -5.55112e-17
170 1 62.8178 207.934 -5.55112e-17
171 1 137.881 93.2555 -5.55112e-17
172 1 199.273 200.903 -5.55112e-17
173 1 41.8946 201.53 -5.55112e-17
174 2 36.9736 173.501 -5.55112e-17
175 2 51.2637 204.165 -5.55112e-17
176 1 118.689 155.161 -5.55112e-17
177 2 108.685 9.25424 -5.55112e-17
178 1 26.1285 7.00401 -5.55112e-17
179 2 111.585 192.363 -5.55112e-17
180 1 49.0259 74.1371 -5.55112e-17
181 1 15.7688 119.248 -5.55112e-17
182 1 102.737 97.9278 -5.55112e-17
183 1 62.9409 168.43 -5.55112e-17
184 2 161.619 15.2129 -5.55112e-17
185 2 193.485 80.3059 -5.55112e-17
186 2 72.7905 214.826 -5.55112e-17
187 2 160.334 200.791 -5.55112e-17
188 2 52.8816 45.8038 -5.55112e-17
189 1 172.124 60.4005 -5.55112e-17
190 1 192.805 48.3796 -5.55112e-17
191 2 33.3774 99.3912 -5.55112e-17
192 2 88.7712 80.6394 -5.55112e-17
193 1 106.487 164.427 -5.55112e-17
194 1 27.5292 4.66393 -5.55112e-17
195 2 61.5248 121.597 -5.55112e-17
196 1 0.611178 218.478 -5.55112e-17
197 2 115.432 47.054 -5.55112e-17
198 2 206.857 30.4486 -5.55112e-17
199 2 96.7228 172.482 -5.55112e-17
200 2 98.8687 44.0193 -5.55112e-17
201 2 103.686 121.799 -5.55112e-17
202 1 50.2753 24.5087 -5.55112e-17
203 1 21.1473 53.6645 -5.55112e-17
204 2 46.7037 81.56 -5.55112e-17
205 2 190.312 173.367 -5.55112e-17
206 2 173.004 134.017 -5.55112e-17
207 1 68.3621 184.367 -5.55112e-17
208 2 134.036 58.0513 -5.55112e-17
209 2 31.4684 143.046 -5.55112e-17
210 1 175.789 114.714 -5.55112e-17
211 1 199.497 34.2767 -5.55112e-17
212 1 210.183 85.6087 -5.55112e-17
213 1 128.449 124.108 -5.55112e-17
214 2 13.0426 11.267 -5.55112e-17
215 1 13.3967 139.318 -5.55112e-17
216 1 57.0549 36.7433 -5.55112e-17
217 1 165.114 61.8916 -5.55112e-17
218 2 203.63 119.455 -5.55112e-17
219 2 136.274 189.135 -5.55112e-17
220 1 117.211 215.82 -5.55112e-17
221 2 80.367 9.85847 -5.55112e-17
222 1 151.61 150.341 -5.55112e-17
223 1 48.7909 118.661 -5.55112e-17
224 2 147.735 71.1067 -5.55112e-17
225 2 168.97 166.683 -5.55112e-17
226 1 197.139 11.223 -5.55112e-17
227 2 204.102 215.547 -5.55112e-17
228 2 123.38 48.5372 -5.55112e-17
229 1 40.8461 7.26627 -5.55112e-17
230 1 5.84045 56.5326 -5.55112e-17
231 2 139.354 161.304 -5.55112e-17
232 1 21.4572 202.177 -5.55112e-17
233 2 81.0742 195.486 -5.55112e-17
234 1 1.53513 59.7908 -5.55112e-17
235 1 150.315 106.675 -5.55112e-17
236 2 151.797 52.7764 -5.55112e-17
237 2 101.061 203.629 -5.55112e-17
238 2 94.6367 139.847 -5.55112e-17
239 1 36.6801 210.546 -5.55112e-17
240 1 130.105 91.1884 -5.55112e-17
241 2 3.35412 123.573 -5.55112e-17
242 1 187.03 28.0416 -5.55112e-17
243 2 214.536 129.098 -5.55112e-17
244 2 39.5284 191.705 -5.55112e-17
245 1 155.671 30.0747 -5.55112e-17
246 2 88.0058 87.986 -5.55112e-17
247 2 188.398 145.76 -5.55112e-17
248 1 35.8193 32.392 -5.55112e-17
249 1 132.277 108.573 -5.55112e-17
250 1 134.732 26.5841 -5.55112e-17
251 2 110.835 46.5939 -5.55112e-17
252 1 111.337 156.196 -5.55112e-17
253 2 97.3168 99.6633 -5.55112e-17
254 2 178.935 206.652 -5.55112e-17
255 2 127.147 34.8358 -5.55112e-17
256 1 218.24 181.621 -5.55112e-17
257 2 26.6156 190.106 -5.55112e-17
258 1 212.786 78.7087 -5.55112e-17
259 2 162.005 141.118 -5.55112e-17
260 1 50.0336 182.359 -5.55112e-17
261 2 143.264 177.491 -5.55112e-17
262 2 183.407 115.17 -5.55112e-17
263 2 93.394 171.477 -5.55112e-17
264 1 197.032 34.853 -5.55112e-17
265 1 146.096 190.676 -5.55112e-17
266 1 90.9325 195.187 -5.55112e-17
267 2 108.275 16.615 -5.55112e-17
268 1 0.643493 48.4251 -5.55112e-17
269 2 10.0748 110.956 -5.55112e-17
270 2 177.016 147.845 -5.55112e-17
271 2 187.901 94.0369 -5.55112e-17
272 1 62.6291 20.9432 -5.55112e-17
273 1 72.5771 82.5033 -5.55112e-17
274 1 28.343 192.148 -5.55112e-17
275 1 146.711 110.971 -5.55112e-17
276 1 205.995 75.0237 -5.55112e-17
277 1 109.053 44.9012 -5.55112e-17
278 2 59.6252 143.632 -5.55112e-17
279 2 160.403 87.106 -5.55112e-17
280 1 116.247 213.536 -5.55112e-17
281 2 166.109 174.099 -5.55112e-17
282 2 74.2032 124.062 -5.55112e-17
283 2 217.508 150.408 -5.55112e-17
284 1 125.993 113.762 -5.55112e-17
285 1 72.2836 165.271 -5.55112e-17
286 2 28.4683 180.613 -5.55112e-17
287 2 99.4489 101.711 -5.55112e-17
288 1 108.839 120.683 -5.55112e-17
289 2 184.99 59.0893 -5.55112e-17
290 1 103.487 16.6589 -5.55112e-17
291 2 96.5707 189.075 -5.55112e-17
292 1 75.4897 132.739 -5.55112e-17
293 1 147.294 155.385 -5.55112e-17
294 1 28.14 178.035 -5.55112e-17
295 2 45.5894 146.766 -5.55112e-17
296 1 191.955 175.796 -5.55112e-17
297 1 3.63801 18.3689 -5.55112e-17
298 2 29.3908 141.211 -5.55112e-17
299 1 178.733 64.2057 -5.55112e-17
300 2 193.384 197.467 -5.55112e-17
301 2 169.125 17.7336 -5.55112e-17
302 2 163.883 89.6548 -5.55112e-17
303 1 1.20516 151.28 -5.55112e-17
304 1 124.376 106.238 -5.55112e-17
305 1 91.7208 176.872 -5.55112e-17
306 2 83.0224 12.835 -5.55112e-17
307 2 151.509 165.531 -5.55112e-17
308 2 142.969 21.5865 -5.55112e-17
309 1 71.6242 71.3894 -5.55112e-17
310 1 185.889 187.076 -5.55112e-17
311 1 150.955 109.285 -5.55112e-17
312 2 131.967 16.0135 -5.55112e-17
313 2 160.258 21.2619 -5.55112e-17
314 1 189.871 70.1723 -5.55112e-17
315 2 57.263 101.197 -5.55112e-17
316 1 107.81 59.222 -5.55112e-17
317 1 133.65 175.452 -5.55112e-17
318 1 216.155 137.996 -5.55112e-17
319 2 75.5926 195.879 -5.55112e-17
320 1 214.736 48.3555 -5.55112e-17
321 1 55.1513 87.7971 -5.55112e-17
322 1 50.421 149.34 -5.55112e-17
323 2 20.1158 140.429 -5.55112e-17
324 2 16.8756 107.296 -5.55112e-17
325 2 217.227 14.1858 -5.55112e-17
326 1 185.476 2.40089 -5.55112e-17
327 1 14.9956 32.6803 -5.55112e-17
328 2 26.0317 204.17 -5.55112e-17
329 2 33.1003 76.0155 -5.55112e-17
330 2 142.357 44.447 -5.55112e-17
331 2 187.581 71.6087 -5.55112e-17
332 2 121.437 114.933 -5.55112e-17
333 2 26.7456 150.987 -5.55112e-17
334 2 216.84 18.6044 -5.55112e-17
335 1 167.125 213.921 -5.55112e-17
336 2 27.0722 142.983 -5.55112e-17
337 2 39.6702 17.3158 -5.55112e-17
338 1 6.46978 92.8315 -5.55112e-17
339 2 12.4946 149.147 -5.55112e-17
340 2 177.225 215.966 -5.55112e-17
341 2 91.7986 84.9605 -5.55112e-17
342 2 179.638 182.919 -5.55112e-17
343 2 176.739 6.22375 -5.55112e-17
344 1 86.6298 107.857 -5.55112e-17
345 2 32.3211 207.496 -5.55112e-17
346 2 88.831 67.3844 -5.55112e-17
347 1 148.179 99.1322 -5.55112e-17
348 1 181.882 5.31483 -5.55112e-17
349 2 173.043 70.8291 -5.55112e-17
350 2 74.9733 179.815 -5.55112e-17
351 1 170.719 134.942 -5.55112e-17
352 1 210.676 163.064 -5.55112e-17
353 2 142.735 130.131 -5.55112e-17
354 2 177.852 178.019 -5.55112e-17
355 1 214.073 156.184 -5.55112e-17
356 2 110.582 217.793 -5.55112e-17
357 1 127.279 192.538 -5.55112e-17
358 1 75.007 28.0073 -5.55112e-17
359 1 33.8297 144.496 -5.55112e-17
360 1 59.9212 16.5681 -5.55112e-17
361 2 196.666 67.7941 -5.55112e-17
362 2 173.128 94.7141 -5.55112e-17
363 1 81.4879 202.92 -5.55112e-17
364 2 218.221 46.2863 -5.55112e-17
365 1 3.92764 164.116 -5.55112e-17
366 1 82.3063 172.968 -5.55112e-17
367 1 173.017 100.431 -5.55112e-17
368 1 20.7442 165.105 -5.55112e-17
369 2 81.3714 143.927 -5.55112e-17
370 1 1.633 132.76 -5.55112e-17
371 2 70.1215 111.726 -5.55112e-17
372 1 85.9589 9.14078 -5.55112e-17
373 2 115.633 204.842 -5.55112e-17
374 2 178.447 102.487 -5.55112e-17
375 1 136.663 24.8175 -5.55112e-17
376 1 117.239 150.072 -5.55112e-17
377 2 96.5014 66.8187 -5.55112e-17
378 2 211.493 102.438 -5.55112e-17
379 2 169.966 185.073 -5.55112e-17
380 1 196.221 25.8599 -5.55112e-17
381 1 173.211 55.5655 -5.55112e-17
382 1 121.07 30.2038 -5.55112e-17
383 1 104.266 110.228 -5.55112e-17
384 2 54.4795 100.878 -5.55112e-17
385 1 59.4007 141.171 -5.55112e-17
386 2 191.386 161.843 -5.55112e-17
387 1 34.6685 101.641 -5.55112e-17
388 1 142.677 165.383 -5.55112e-17
389 2 215.572 119.819 -5.55112e-17
390 1 121.848 60.3108 -5.55112e-17
391 1 203.256 218.033 -5.55112e-17
392 2 18.0845 96.5977 -5.55112e-17
393 2 189.58 176.305 -5.55112e-17
394 1 42.1412 206.155 -5.55112e-17
395 1 19.4394 214.842 -5.55112e-17
396 2 77.8201 87.028 -5.55112e-17
397 1 77.1535 35.2653 -5.55112e-17
398 2 166.683 106.842 -5.55112e-17
399 2 191.517 103.836 -5.55112e-17
400 2 115.744 67.555 -5.55112e-17
401 2 87.8656 182.988 -5.55112e-17
402 1 77.4892 23.8194 -5.55112e-17
403 1 59.7748 108.463 -5.55112e-17
404 2 115.185 3.89553 -5.55112e-17
405 1 54.8784 196.712 -5.55112e-17
406 2 7.85213 100.047 -5.55112e-17
407 1 120.077 78.8506 -5.55112e-17
408 1 130.48 28.3691 -5.55112e-17
409 2 214.376 114.636 -5.55112e-17
410 2 69.4989 158.989 -5.55112e-17
411 1 136.425 97.6968 -5.55112e-17
412 1 166.516 6.37215 -5.55112e-17
413 1 38.7092 84.9111 -5.55112e-17
414 2 193.463 204.285 -5.55112e-17
415 1 88.7676 121.54 -5.55112e-17
416 1 183.251 57.1214 -5.55112e-17
417 2 105.542 126.964 -5.55112e-17
418 2 33.0006 179.866 -5.55112e-17
419 2 194.671 91.8478 -5.55112e-17
420 2 113.107 53.9616 -5.55112e-17
421 1 68.1906 26.4188 -5.55112e-17
422 1 38.386 60.0649 -5.55112e-17
423 2 114.389 124.642 -5.55112e-17
424 2 38.9813 19.968 -5.55112e-17
425 2 118.551 147.692 -5.55112e-17
426 1 183.272 95.6458 -5.55112e-17
427 2 78.1486 64.1373 -5.55112e-17
428 1 27.7366 175.387 -5.55112e-17
429 2 131.711 150.088 -5.55112e-17
430 2 110.254 107.097 -5.55112e-17
431 1 14.066 8.89087 -5.55112e-17
432 2 174.173 4.93193 -5.55112e-17
433 1 176.933 199.371 -5.55112e-17
434 1 17.5449 203.904 -5.55112e-17
435 1 150.075 85.782 -5.55112e-17
436 2 69.3256 191.671 -5.55112e-17
437 2 181.296 82.9516 -5.55112e-17
438 2 185.347 171.496 -5.55112e-17
439 2 96.3773 18.7517 -5.55112e-17
440 2 214.895 90.9643 -5.55112e-17
441 1 119.225 175.468 -5.55112e-17
442 1 42.3491 105.89 -5.55112e-17
443 2 80.4174 77.6557 -5.55112e-17
444 1 190.436 110.761 -5.55112e-17
445 1 176.108 139.972 -5.55112e-17
446 2 178.13 153.371 -5.55112e-17
447 2 39.0663 39.14 -5.55112e-17
448 2 192.772 168.266 -5.55112e-17
449 1 41.3131 175.597 -5.55112e-17
450 1 10.1973 123.099 -5.55112e-17
451 1 47.0935 218.79 -5.55112e-17
452 2 209.972 60.8869 -5.55112e-17
453 1 214.952 149.709 -5.55112e-17
454 1 4.49869 68.4462 -5.55112e-17
455 2 72.7537 132.383 -5.55112e-17
456 1 82.3888 216.833 -5.55112e-17
457 2 139.093 146.022 -5.55112e-17
458 2 152.769 136.932 -5.55112e-17
459 2 135.474 63.4264 -5.55112e-17
460 1 198.848 163.629 -5.55112e-17
461 1 107.811 125.41 -5.55112e-17
462 1 96.4447 184.319 -5.55112e-17
463 2 110.284 213.684 -5.55112e-17
464 2 29.0635 73.1638 -5.55112e-17
465 1 127.23 10.3434 -5.55112e-17
466 2 155.048 127.02 -5.55112e-17
467 2 61.9883 140.166 -5.55112e-17
468 2 123.922 126.003 -5.55112e-17
469 2 60.0104 71.5037 -5.55112e-17
470 2 206.968 153.618 -5.55112e-17
471 2 212.73 212.251 -5.55112e-17
472 2 109.173 42.1967 -5.55112e-17
473 2 196.249 215.507 -5.55112e-17
474 2 84.8355 146.886 -5.55112e-17
475 1 163.453 181.364 -5.55112e-17
476 2 172.909 45.6571 -5.55112e-17
477 1 208.856 218.671 -5.55112e-17
478 1 49.9397 197.213 -5.55112e-17
479 2 2.44487 203.383 -5.55112e-17
480 1 84.7991 47.3733 -5.55112e-17
481 1 3.26568 208.747 -5.55112e-17
482 2 158.697 176.13 -5.55112e-17
483 1 126.613 208.728 -5.55112e-17
484 1 64.4177 138.532 -5.55112e-17
485 2 12.4289 172.618 -5.55112e-17
486 1 120.59 67.8549 -5.55112e-17
487 1 20.8791 194.199 -5.55112e-17
488 1 52.4285 84.2649 -5.55112e-17
489 1 72.3851 113.213 -5.55112e-17
490 1 164.173 73.772 -5.55112e-17
491 1 162.608 75.8866 -5.55112e-17
492 2 210.024 15.9492 -5.55112e-17
493 1 90.5977 210.617 -5.55112e-17
494 2 86.7038 64.8371 -5.55112e-17
495 1 150.496 92.6207 -5.55112e-17
496 1 51.1316 129.311 -5.55112e-17
497 1 137.12 110.165 -5.55112e-17
498 2 153.075 35.7817 -5.55112e-17
499 2 179.943 137.21 -5.55112e-17
500 2 57.1594 39.2512 -5.55112e-17
501 2 12.3007 136.993 -5.55112e-17
502 2 202.442 130.948 -5.55112e-17
503 2 59.2152 63.6863 -5.55112e-17
504 2 107.195 53.1105 -5.55112e-17
505 2 108.754 206.774 -5.55112e-17
506 1 207.948 7.2104 -5.55112e-17
507 2 43.3881 184.042 -5.55112e-17
508 1 142.442 53.0656 -5.55112e-17
509 1 210.298 47.7129 -5.55112e-17
510 1 197.82 98.913 -5.55112e-17
511 2 105.651 178.516 -5.55112e-17
512 1 31.5248 32.2606 -5.55112e-17
513 2 90.2896 181.17 -5.55112e-17
514 2 28.1962 93.9962 -5.55112e-17
515 1 63.9583 98.5501 -5.55112e-17
516 2 102.763 85.3526 -5.55112e-17
517 1 31.4301 147.967 -5.55112e-17
518 2 11.2644 13.7178 -5.55112e-17
519 1 125.656 92.3891 -5.55112e-17
520 2 218.15 94.2195 -5.55112e-17
521 2 135.354 34.6739 -5.55112e-17
522 1 187.482 8.62409 -5.55112e-17
523 1 127.906 100.221 -5.55112e-17
524 2 174.003 18.0914 -5.55112e-17
525 2 193.104 58.954 -5.55112e-17
526 2 92.6569 21.8703 -5.55112e-17
527 1 173.323 34.3899 -5.55112e-17
528 1 0.485737 201.684 -5.55112e-17
529 2 114.192 173.576 -5.55112e-17
530 2 31.2821 81.4631 -5.55112e-17
531 2 180.221 172.205 -5.55112e-17
532 1 89.5519 26.8554 -5.55112e-17
533 2 19.2983 155.028 -5.55112e-17
534 1 21.451 169.248 -5.55112e-17
535 1 169.385 209.025 -5.55112e-17
536 2 17.2448 169.227 -5.55112e-17
537 1 142.556 28.6652 -5.55112e-17
538 1 66.9928 157.528 -5.55112e-17
539 2 78.9644 163.984 -5.55112e-17
540 1 33.3889 182.413 -5.55112e-17
541 1 110.879 128.734 -5.55112e-17
542 1 58.1256 126.048 -5.55112e-17
543 2 124.563 170.791 -5.55112e-17
544 1 218.416 211.447 -5.55112e-17
545 1 174.818 72.8392 -5.55112e-17
546 2 187.108 11.2456 -5.55112e-17
547 1 24.8994 78.5858 -5.55112e-17
548 1 29.9709 4.83431 -5.55112e-17
549 2 33.6998 153.285 -5.55112e-17
550 2 163.823 192.173 -5.55112e-17
551 2 37.1531 15.652 -5.55112e-17
552 1 30.1894 60.6874 -5.55112e-17
553 2 216.024 191.823 -5.55112e-17
554 2 144.672 32.8285 -5.55112e-17
555 2 178.319 141.821 -5.55112e-17
556 1 177.92 213.41 -5.55112e-17
557 1 212.01 54.5014 -5.55112e-17
558 1 57.2344 145.097 -5.55112e-17
559 2 107.136 91.3851 -5.55112e-17
560 2 59.9214 89.6334 -5.55112e-17
561 2 109.115 172.251 -5.55112e-17
562 2 106.644 61.6149 -5.55112e-17
563 1 72.2612 168.14 -5.55112e-17
564 2 105.226 84.1121 -5.55112e-17
565 2 32.5957 59.3825 -5.55112e-17
566 2 68.7251 62.2264 -5.55112e-17
567 1 89.7523 32.3966 -5.55112e-17
568 1 31.7164 73.7219 -5.55112e-17
569 2 141.861 193.547 -5.55112e-17
570 2 11.9974 23.0243 -5.55112e-17
571 2 6.70281 61.8339 -5.55112e-17
572 1 116.005 110.95 -5.55112e-17
573 2 38.8639 91.6363 -5.55112e-17
574 2 168.261 172.151 -5.55112e-17
575 1 196.657 208.569 -5.55112e-17
576 1 19.7798 80.3429 -5.55112e-17
577 1 123.103 74.3393 -5.55112e-17
578 1 193.966 104.773 -5.55112e-17
579 2 183.562 61.9794 -5.55112e-17
580 1 109.729 104.474 -5.55112e-17
581 1 91.6751 146.263 -5.55112e-17
582 2 125.57 101.7 -5.55112e-17
583 2 100.848 80.6388 -5.55112e-17
584 2 107.117 150.545 -5.55112e-17
585 1 179.97 97.981 -5.55112e-17
586 1 147.847 81.0916 -5.55112e-17
587 1 158.889 110.85 -5.55112e-17
588 2 68.2996 109.149 -5.55112e-17
589 1 211.991 59.4925 -5.55112e-17
590 2 193.09 55.7963 -5.55112e-17
591 2 179.46 17.7979 -5.55112e-17
592 1 206.717 135.558 -5.55112e-17
593 1 127.712 90.7382 -5.55112e-17
594 1 6.56309 69.8418 -5.55112e-17
595 1 19.4998 67.6604 -5.55112e-17
596 2 110.674 70.0679 -5.55112e-17
597 2 65.1202 104.567 -5.55112e-17
598 2 136.463 88.2787 -5.55112e-17
599 2 94.8804 164.233 -5.55112e-17
600 2 57.325 104.373 -5.55112e-17
601 1 145.902 108.073 -5.55112e-17
602 1 162.401 48.3987 -5.55112e-17
603 2 214.995 158.751 -5.55112e-17
604 1 40.9649 183.14 -5.55112e-17
605 2 140.433 101.104 -5.55112e-17
606 2 150.829 99.6108 -5.55112e-17
607 2 45.8965 170.014 -5.55112e-17
608 2 128.393 29.8653 -5.55112e-17
609 1 80.2668 87.9802 -5.55112e-17
610 2 98.5457 191.391 -5.55112e-17
611 1 218.23 164.884 -5.55112e-17
612 1 207.168 116.122 -5.55112e-17
613 2 211.53 155.44 -5.55112e-17
614 1 200.574 27.1086 -5.55112e-17
615 1 152.477 104.802 -5.55112e-17
616 2 146.074 175.793 -5.55112e-17
617 1 168.924 3.06405 -5.55112e-17
618 1 134.419 1.18864 -5.55112e-17
619 1 156.546 154.898 -5.55112e-17
620 2 45.7654 89.6519 -5.55112e-17
621 2 203.57 76.4172 -5.55112e-17
622 2 144.625 150.544 -5.55112e-17
623 2 111.563 143.849 -5.55112e-17
624 1 109.978 166.995 -5.55112e-17
625 2 210.392 79.9474 -5.55112e-17
626 1 205.969 198.059 -5.55112e-17
627 2 199.954 187.897 -5.55112e-17
628 1 119.679 149.998 -5.55112e-17
629 1 36.3259 34.8877 -5.55112e-17
630 2 134.368 6.81528 -5.55112e-17
631 2 144.761 115.408 -5.55112e-17
632 2 210.272 20.4933 -5.55112e-17
633 2 63.1066 131.071 -5.55112e-17
634 2 191.238 68.0634 -5.55112e-17
635 2 87.9868 59.8293 -5.55112e-17
636 1 86.9943 130.959 -5.55112e-17
637 1 215.771 152.229 -5.55112e-17
638 1 132.648 63.0152 -5.55112e-17
639 2 201.846 65.6847 -5.55112e-17
640 2 149.199 78.8081 -5.55112e-17
641 1 217.241 98.3357 -5.55112e-17
642 2 158.114 34.0239 -5.55112e-17
643 1 158.95 58.8496 -5.55112e-17
644 2 141.545 156.922 -5.55112e-17
645 2 7.84007 75.0468 -5.55112e-17
646 1 171.308 141.672 -5.55112e-17
647 2 126.45 146.333 -5.55112e-17
648 2 190.155 212.162 -5.55112e-17
649 1 62.5742 133.489 -5.55112e-17
650 1 54.8098 154.16 -5.55112e-17
651 1 98.8518 131.046 -5.55112e-17
652 2 9.33188 214.05 -5.55112e-17
653 2 193.449 45.5047 -5.55112e-17
654 1 206.196 163.856 -5.55112e-17
655 1 59.3831 40.2281 -5.55112e-17
656 1 199.755 11.3942 -5.55112e-17
657 1 125.461 120.872 -5.55112e-17
658 2 171.414 105.201 -5.55112e-17
659 2 100.967 136.033 -5.55112e-17
660 1 26.2472 11.4104 -5.55112e-17
661 2 19.1392 46.0403 -5.55112e-17
662 2 135.794 117.093 -5.55112e-17
663 1 160.544 109.358 -5.55112e-17
664 1 79.0524 135.814 -5.55112e-17
665 1 129.089 146.099 -5.55112e-17
666 1 192.774 171.177 -5.55112e-17
667 1 0.381762 115.727 -5.55112e-17
668 1 134.85 157.875 -5.55112e-17
669 1 107.365 159.863 -5.55112e-17
670 2 209.865 160.317 -5.55112e-17
671 1 4.68361 15.8956 -5.55112e-17
672 1 187.942 155.757 -5.55112e-17
673 2 50.0166 85.5398 -5.55112e-17
674 2 182.006 206.304 -5.55112e-17
675 2 152.27 0.245439 -5.55112e-17
676 1 184.351 164.651 -5.55112e-17
677 2 58.794 57.8377 -5.55112e-17
678 1 92.2819 105.675 -5.55112e-17
679 1 99.957 59.446 -5.55112e-17
680 2 75.0852 10.9368 -5.55112e-17
681 1 6.15566 9.1796 -5.55112e-17
682 1 141.184 172.865 -5.55112e-17
683 2 90.592 117.471 -5.55112e-17
684 1 21.6975 180.936 -5.55112e-17
685 1 80.7632 205.701 -5.55112e-17
686 1 136.88 153.155 -5.55112e-17
687 1 110.204 51.6883 -5.55112e-17
688 1 152.281 97.5295 -5.55112e-17
689 2 7.48807 139.625 -5.55112e-17
690 1 47.969 131.1 -5.55112e-17
691 2 72.7729 115.712 -5.55112e-17
692 2 172.06 182.61 -5.55112e-17
693 1 162.19 96.5969 -5.55112e-17
694 2 136.292 155.664 -5.55112e-17
695 2 181.56 29.6029 -5.55112e-17
696 2 25.7031 100.43 -5.55112e-17
697 1 108.419 33.7515 -5.55112e-17
698 2 36.5118 23.8809 -5.55112e-17
699 1 65.1623 195.159 -5.55112e-17
700 2 17.6776 126.285 -5.55112e-17
701 2 31.7687 62.9259 -5.55112e-17
702 1 151.211 2.42399 -5.55112e-17
703 1 199.218 66.2943 -5.55112e-17
704 1 159.526 125.54 -5.55112e-17
705 1 38.3998 127.449 -5.55112e-17
706 1 74.2639 161.256 -5.55112e-17
707 1 182.456 67.0311 -5.55112e-17
708 2 197.289 101.677 -5.55112e-17
709 1 52.8237 161.675 -5.55112e-17
710 2 100.75 15.8383 -5.55112e-17
711 2 1.32875 143.481 -5.55112e-17
712 1 81.1041 214.846 -5.55112e-17
713 1 3.66949 152.025 -5.55112e-17
714 2 145.949 142.208 -5.55112e-17
715 2 133.772 87.7198 -5.55112e-17
716 1 84.9884 59.4943 -5.55112e-17
717 1 22.0611 61.4465 -5.55112e-17
718 2 82.2211 98.2169 -5.55112e-17
719 1 70.1014 200.353 -5.55112e-17
720 2 54.1196 204.272 -5.55112e-17
721 2 45.2344 210.767 -5.55112e-17
722 2 66.3949 136.874 -5.55112e-17
723 2 15.3752 164.197 -5.55112e-17
724 2 205.338 107.128 -5.55112e-17
725 2 26.4466 52.9907 -5.55112e-17
726 2 180.728 125.443 -5.55112e-17
727 2 34.9902 106.959 -5.55112e-17
728 1 176.676 77.597 -5.55112e-17
729 2 164.008 132.498 -5.55112e-17
730 2 176.363 92.7702 -5.55112e-17
731 1 9.14488 23.2465 -5.55112e-17
732 2 107.776 94.5835 -5.55112e-17
733 2 149.577 136.433 -5.55112e-17
734 2 62.8817 203.106 -5.55112e-17
735 2 149.623 73.6159 -5.55112e-17
736 1 174.676 183.411 -5.55112e-17
737 2 45.2108 43.7189 -5.55112e-17
738 2 75.0832 210.265 -5.55112e-17
739 2 190.291 126.014 -5.55112e-17
740 2 36.8574 117.195 -5.55112e-17
741 2 201.552 111.698 -5.55112e-17
742 1 75.3429 97.9319 -5.55112e-17
743 2 80.9861 70.1144 -5.55112e-17
744 1 143.218 37.2149 -5.55112e-17
745 2 14.2705 73.3117 -5.55112e-17
746 1 218.568 120.442 -5.55112e-17
747 1 96.5926 162.446 -5.55112e-17
748 2 67.6529 194.155 -5.55112e-17
749 1 211.332 165.386 -5.55112e-17
750 1 136.304 140.777 -5.55112e-17
751 1 143.313 89.7582 -5.55112e-17
752 2 183.434 161.973 -5.55112e-17
753 1 35.574 181.008 -5.55112e-17
754 2 68.1058 80.7918 -5.55112e-17
755 1 15.0341 81.5206 -5.55112e-17
756 2 173.77 58.4195 -5.55112e-17
757 1 117.802 22.8177 -5.55112e-17
758 2 90.8933 19.5458 -5.55112e-17
759 1 94.6974 132.662 -5.55112e-17
760 1 168.355 64.5296 -5.55112e-17
761 2 0.473755 96.8674 -5.55112e-17
762 1 167.451 114.877 -5.55112e-17
763 2 4.50605 157.193 -5.55112e-17
764 2 51.4422 186.495 -5.55112e-17
765 1 14.9128 161.621 -5.55112e-17
766 2 105.317 57.8464 -5.55112e-17
767 2 205.338 143.482 -5.55112e-17
768 2 80.4588 59.592 -5.55112e-17
769 2 191.742 100.854 -5.55112e-17
770 1 132.5 18.8504 -5.55112e-17
771 1 66.5959 64.0863 -5.55112e-17
772 1 125.962 8.18245 -5.55112e-17
773 2 163.546 165.807 -5.55112e-17
774 1 87.2244 85.1945 -5.55112e-17
775 1 108.579 71.5256 -5.55112e-17
776 2 188.954 102.546 -5.55112e-17
777 2 44.1527 83.6927 -5.55112e-17
778 1 74.0278 16.0627 -5.55112e-17
779 1 47.4346 63.5186 -5.55112e-17
780 2 77.9434 50.1498 -5.55112e-17
781 1 24.5002 172.05 -5.55112e-17
782 2 112.165 159.159 -5.55112e-17
783 1 79.9335 57.1509 -5.55112e-17
784 2 95.4518 115.313 -5.55112e-17
785 1 205.651 83.2554 -5.55112e-17
786 1 38.6697 215.076 -5.55112e-17
787 2 39.7586 205.918 -5.55112e-17
788 2 163.2 172.758 -5.55112e-17
789 2 19.1029 145.788 -5.55112e-17
790 2 83.4753 2.28703 -5.55112e-17
791 2 181.654 39.035 -5.55112e-17
792 1 210.266 130.973 -5.55112e-17
793 1 95.8932 169.988 -5.55112e-17
794 2 210.48 7.27641 -5.55112e-17
795 2 10.472 183.536 -5.55112e-17
796 1 70.2975 4.64525 -5.55112e-17
797 1 50.5003 32.2707 -5.55112e-17
798 1 214.545 56.0184 -5.55112e-17
799 2 105.99 154.933 -5.55112e-17
800 1 50.2335 34.9826 -5.55112e-17
801 2 70.624 84.3689 -5.55112e-17
802 1 79.9439 5.56584 -5.55112e-17
803 1 143.606 24.2466 -5.55112e-17
804 1 209.858 123.331 -5.55112e-17
805 2 184.832 109.495 -5.55112e-17
806 2 176.38 160.6 -5.55112e-17
807 2 210.051 30.0724 -5.55112e-17
808 2 78.3605 150.422 -5.55112e-17
809 1 174.334 68.8202 -5.55112e-17
810 2 22.8339 174.209 -5.55112e-17
811 2 185.32 44.9754 -5.55112e-17
812 1 118.674 188.395 -5.55112e-17
813 1 217.393 86.5398 -5.55112e-17
814 1 8.59658 203.908 -5.55112e-17
815 1 147.211 31.3946 -5.55112e-17
816 1 207.801 51.6272 -5.55112e-17
817 2 64.4615 70.7502 -5.55112e-17
818 2 29.1691 123.469 -5.55112e-17
819 2 212.335 68.0335 -5.55112e-17
820 1 11.1964 58.2503 -5.55112e-17
821 1 66.6824 46.8301 -5.55112e-17
822 2 129.005 32.7687 -5.55112e-17
823 1 185.045 88.7169 -5.55112e-17
824 1 175.808 90.2187 -5.55112e-17
825 1 147.688 197.666 -5.55112e-17
826 2 178.534 82.2955 -5.55112e-17
827 2 104.797 38.3455 -5.55112e-17
828 1 53.5892 91.8706 -5.55112e-17
829 2 128.183 93.24 -5.55112e-17
830 1 1.93385 156.289 -5.55112e-17
831 2 183.559 0.423213 -5.55112e-17
832 2 30.2341 49.7102 -5.55112e-17
833 2 83.0109 34.9792 -5.55112e-17
834 1 69.8824 164.129 -5.55112e-17
835 1 187.744 143.242 -5.55112e-17
836 1 152.272 74.0648 -5.55112e-17
837 2 169.199 90.5807 -5.55112e-17
838 2 91.798 24.999 -5.55112e-17
839 1 24.8137 27.172 -5.55112e-17
840 2 13.8333 117.135 -5.55112e-17
841 2 202.46 11.3384 -5.55112e-17
842 1 180.548 143.249 -5.55112e-17
843 1 204.366 29.4393 -5.55112e-17
844 2 7.79203 30.3535 -5.55112e-17
845 1 45.3542 151.937 -5.55112e-17
846 2 130.914 215.57 -5.55112e-17
847 1 88.0719 142.956 -5.55112e-17
848 2 116.947 6.08299 -5.55112e-17
849 1 17.7526 37.1757 -5.55112e-17
850 2 61.7877 67.0557 -5.55112e-17
851 2 213.809 30.8654 -5.55112e-17
852 1 132.971 177.729 -5.55112e-17
853 1 192.068 106.426 -5.55112e-17
854 2 103.473 144.239 -5.55112e-17
855 2 168.76 117.081 -5.55112e-17
856 1 74.3339 155.849 -5.55112e-17