ITEM: TIMESTEP
0
ITEM: NUMBER OF ATOMS
7200
ITEM: BOX BOUNDS xy xz yz pp pp pp
0.0000000000000000e+00 2.1900000000000000e+02 0.0000000000000000e+00
0.0000000000000000e+00 2.1900000000000000e+02 0.0000000000000000e+00
-3.6499999999999999e-01 3.6499999999999999e-01 0.0000000000000000e+00
ITEM: ATOMS id type x y z
1 1 23.3908 72.5155 -5.55112e-17
2 2 24.4517 67.9234 -5.55112e-17
3 2 29.58 204.067 -5.55112e-17
4 1 18.6186 103.192 -5.55112e-17
5 1 143.716 163.751 -5.55112e-17
6 1 24.8679 133.647 -5.55112e-17
7 2 134.137 139.649 -5.55112e-17
8 2 203.662 119.568 -5.55112e-17
9 1 92.7953 12.7512 -5.55112e-17
10 2 4.73844 197.223 -5.55112e-17
11 2 216.326 94.7482 -5.55112e-17
12 1 145.49 14.1871 -5.55112e-17
13 2 85.525 173.557 -5.55112e-17
14 1 17.1093 46.4989 -5.55112e-17
15 2 148.981 154.717 -5.55112e-17
16 2 104.169 123.129 -5.55112e-17
17 1 94.022 97.377 -5.55112e-17
18 2 46.1908 191.362 -5.55112e-17
19 1 9.85204 170.615 -5.55112e-17
20 1 144.267 133.775 -5.55112e-17
21 1 138.455 9.87641 -5.55112e-17
22 2 130.892 56.7479 -5.55112e-17
23 2 69.743 163.49 -5.55112e-17
24 2 99.6338 151.148 -5.55112e-17
25 2 193.766 202.005 -5.55112e-17
26 2 39.7692 124.968 -5.55112e-17
27 1 143.755 97.5375 -5.55112e-17
28 2 160.359 106.125 -5.55112e-17
29 2 88.1434 134.855 -5.55112e-17
30 2 150.588 173.881 -5.55112e-17
31 2 135.333 165.029 -5.55112e-17
32 1 53.0346 217.283 -5.55112e-17
33 2 153.277 144.307 -5.55112e-17
34 2 35.1535 53.0346 -5.55112e-17
35 2 31.1709 72.8918 -5.55112e-17
36 1 205.168 149.905 -5.55112e-17
37 1 77.2916 74.7274 -5.55112e-17
38 2 79.1053 99.5785 -5.55112e-17
39 1 78.8425 22.2475 -5.55112e-17
40 2 23.961 44.0255 -5.55112e-17
41 1 5.34798 14.7554 -5.55112e-17
42 1 15.3082 61.0367 -5.55112e-17
43 1 12.0015 112.605 -5.55112e-17
44 1 72.7519 128.685 -5.55112e-17
45 2 150.587 48.1624 -5.55112e-17
46 1 161.461 214.687 -5.55112e-17
47 2 12.9605 143.341 -5.55112e-17
48 2 168.811 125.944 -5.55112e-17
49 1 218.558 60.5597 -5.55112e-17
50 2 51.1161 82.3577 -5.55112e-17
51 1 44.7308 48.3639 -5.55112e-17
52 1 70.6356 100.945 -5.55112e-17
53 2 41.0965 59.7585 -5.55112e-17
54 1 116.087 168.205 -5.55112e-17
55 2 72.0747 16.6504 -5.55112e-17
56 1 3.87414 154.14 -5.55112e-17
57 2 2.65831 26.5307 -5.55112e-17
58 1 21.2981 181.629 -5.55112e-17
59 1 142.652 125.827 -5.55112e-17
60 2 195.225 7.95615 -5.55112e-17
61 1 85.3763 42.5268 -5.55112e-17
62 1 137.132 211.812 -5.55112e-17
63 2 7.52834 115.691 -5.55112e-17
64 1 207.784 134.653 -5.55112e-17
65 2 110.868 76.6193 -5.55112e-17
66 2 0.276552 95.6388 -5.55112e-17
67 2 205.149 165.974 -5.55112e-17
68 1 153.931 118.68 -5.55112e-17
69 2 34.058 78.7229 -5.55112e-17
70 1 209.855 96.6016 -5.55112e-17
71 1 191.823 64.6342 -5.55112e-17
72 2 123.401 14.2483 -5.55112e-17
73 2 158.103 86.5762 -5.55112e-17
74 2 187.781 80.3553 -5.55112e-17
75 1 39.2663 195.066 -5.55112e-17
76 2 89.9862 132.072 -5.55112e-17
77 2 13.5115 49.0603 -5.55112e-17
78 1 53.1535 98.6001 -5.55112e-17
79 2 131.037 79.8251 -5.55112e-17
80 1 64.551 85.4805 -5.55112e-17
81 1 35.2067 85.2939 -5.55112e-17
82 1 127.554 200.4 -5.55112e-17
83 1 112.014 188.31 -5.55112e-17
84 2 203.377 30.2163 -5.55112e-17
85 2 158.733 143.564 -5.55112e-17
86 2 21.0898 12.8887 -5.55112e-17
87 2 125.879 41.327 -5.55112e-17
88 1 33.7245 113.458 -5.55112e-17
89 2 14.6566 46.2886 -5.55112e-17
90 2 36.1166 114.873 -5.55112e-17
91 2 200.991 209.43 -5.55112e-17
92 1 167.959 1.05064 -5.55112e-17
93 2 42.1446 195.552 -5.55112e-17
94 2 28.5146 86.8679 -5.55112e-17
95 1 48.6263 81.9856 -5.55112e-17
96 2 142.449 2.65968 -5.55112e-17
97 2 189.228 180.425 -5.55112e-17
98 2 62.8148 120.669 -5.55112e-17
99 1 106.316 170.689 -5.55112e-17
100 2 132.455 54.3435 -5.55112e-17
101 1 214.551 206.828 -5.55112e-17
102 1 198.931 122.946 -5.55112e-17
103 2 53.0481 197.22 -5.55112e-17
104 2 60.1465 129.1 -5.55112e-17
105 1 204.867 136.868 -5.55112e-17
106 1 14.6 21.2659 -5.55112e-17
107 1 107.769 192.279 -5.55112e-17
108 1 34.445 108.882 -5.55112e-17
109 2 116.44 190.409 -5.55112e-17
110 2 117.455 141.406 -5.55112e-17
111 1 137.315 152.777 -5.55112e-17
112 2 27.5593 126.515 -5.55112e-17
113 1 84.936 57.6668 -5.55112e-17
114 1 55.2569 217.216 -5.55112e-17
115 2 117.6 149.643 -5.55112e-17
116 2 130.906 150.714 -5.55112e-17
117 1 177.758 216.944 -5.55112e-17
118 1 61.2207 191.109 -5.55112e-17
119 2 197.693 85.1653 -5.55112e-17
120 2 197.763 15.0927 -5.55112e-17
121 1 5.96197 195.094 -5.55112e-17
122 2 217.375 55.9932 -5.55112e-17
123 2 153.339 172.547 -5.55112e-17
124 1 175.401 194.163 -5.55112e-17
125 1 30.9863 45.4 -5.55112e-17
126 2 100.706 89.7427 -5.55112e-17
127 2 87.9081 112.89 -5.55112e-17
128 1 27.2383 114.462 -5.55112e-17
129 1 107.756 108.095 -5.55112e-17
130 2 3.96111 58.2328 -5.55112e-17
131 1 60.579 37.076 -5.55112e-17
132 1 91.4291 84.1846 -5.55112e-17
133 1 172.936 17.3463 -5.55112e-17
134 1 19.8738 75.6733 -5.55112e-17
135 2 32.6841 110.516 -5.55112e-17
136 1 69.6864 37.1192 -5.55112e-17
137 1 88.686 102.727 -5.55112e-17
138 2 37.8491 122.649 -5.55112e-17
139 1 56.7277 155.377 -5.55112e-17
140 1 110.375 192.615 -5.55112e-17
141 1 24.7644 36.9807 -5.55112e-17
142 1 5.31376 77.6771 -5.55112e-17
143 1 5.60939 205.576 -5.55112e-17
144 1 64.2639 125.818 -5.55112e-17
145 2 143.811 22.0051 -5.55112e-17
146 1 120.241 53.4384 -5.55112e-17
147 2 100.764 181.396 -5.55112e-17
148 1 77.0504 187.586 -5.55112e-17
149 1 118.986 204.045 -5.55112e-17
150 2 166.573 27.9123 -5.55112e-17
151 1 76.6646 194.333 -5.55112e-17
152 1 139.958 125.435 -5.55112e-17
153 2 163.339 50.7389 -5.55112e-17
154 1 17.9565 64.1438 -5.55112e-17
155 2 178.189 207.236 -5.55112e-17
156 2 182.527 34.5834 -5.55112e-17
157 2 1.52443 192.157 -5.55112e-17
158 2 119.475 24.5304 -5.55112e-17
159 2 150.03 134.723 -5.55112e-17
160 2 179.606 124.906 -5.55112e-17
161 2 37.455 196.918 -5.55112e-17
162 1 14.0763 161.064 -5.55112e-17
163 1 214.274 194.456 -5.55112e-17
164 2 94.9507 15.1211 -5.55112e-17
165 1 192.657 32.7194 -5.55112e-17
166 2 213.294 143.76 -5.55112e-17
167 1 43.7014 69.8781 -5.55112e-17
168 1 19.5592 31.9415 -5.55112e-17
169 2 33.3558 168.082 -5.55112e-17
170 1 68.5455 215.862 -5.55112e-17
171 1 181.157 166.059 -5.55112e-17
172 1 6.3026 66.456 -5.55112e-17
173 1 194.792 105.436 -5.55112e-17
174 2 215.342 66.3561 -5.55112e-17
175 2 103.258 46.5816 -5.55112e-17
176 1 207.209 47.3468 -5.55112e-17
177 2 44.6088 38.4374 -5.55112e-17
178 1 84.6862 22.4012 -5.55112e-17
179 2 209.175 192.895 -5.55112e-17
180 1 209.854 182.314 -5.55112e-17
181 1 123.755 90.3416 -5.55112e-17
182 1 168.833 102.11 -5.55112e-17
183 1 150.28 45.7341 -5.55112e-17
184 2 33.366 200.388 -5.55112e-17
185 2 67.8781 179.291 -5.55112e-17
186 2 93.8395 118.557 -5.55112e-17
187 2 152.625 192.623 -5.55112e-17
188 2 145.268 142.405 -5.55112e-17
189 1 122.072 70.4048 -5.55112e-17
190 1 143.808 48.0897 -5.55112e-17
191 2 127.155 121.867 -5.55112e-17
192 2 92.3743 108.403 -5.55112e-17
193 1 91.0418 150.184 -5.55112e-17
194 1 22.8873 106.853 -5.55112e-17
195 2 209.85 125.048 -5.55112e-17
196 1 52.5131 107.596 -5.55112e-17
197 2 218.761 85.0289 -5.55112e-17
198 2 94.3254 165.329 -5.55112e-17
199 2 72.2152 204.422 -5.55112e-17
200 2 4.44561 192.177 -5.55112e-17
201 2 16.1281 169.022 -5.55112e-17
202 1 147.367 18.1373 -5.55112e-17
203 1 159.126 145.835 -5.55112e-17
204 2 178.899 152.574 -5.55112e-17
205 2 9.09272 176.692 -5.55112e-17
206 2 216.406 184.467 -5.55112e-17
207 1 38.3072 46.0255 -5.55112e-17
208 2 41.8424 40.4217 -5.55112e-17
209 2 33.5591 10.579 -5.55112e-17
210 1 202.871 32.7821 -5.55112e-17
211 1 52.782 61.3929 -5.55112e-17
212 1 66.2464 191.606 -5.55112e-17
213 1 81.9801 39.9466 -5.55112e-17
214 2 105.166 79.2732 -5.55112e-17
215 1 117.035 216.723 -5.55112e-17
216 1 140.803 38.3714 -5.55112e-17
217 1 109.449 149.661 -5.55112e-17
218 2 20.8389 207.034 -5.55112e-17
219 2 153.567 175.792 -5.55112e-17
220 1 16.6946 73.0902 -5.55112e-17
221 2 27.342 24.7231 -5.55112e-17
222 1 84.3742 73.1993 -5.55112e-17
223 1 80.5784 61.0649 -5.55112e-17
224 2 176.212 90.6819 -5.55112e-17
225 2 155.81 180.958 -5.55112e-17
226 1 128.409 20.8692 -5.55112e-17
227 2 3.69515 156.953 -5.55112e-17
228 2 109.575 85.5436 -5.55112e-17
229 1 53.1054 31.6351 -5.55112e-17
230 1 187.165 17.1693 -5.55112e-17
231 2 30.4556 61.0935 -5.55112e-17
232 1 72.5404 87.6172 -5.55112e-17
233 2 102.813 14.9825 -5.55112e-17
234 1 109.124 20.865 -5.55112e-17
235 1 187.712 119.388 -5.55112e-17
236 2 67.0845 125.065 -5.55112e-17
237 2 203.781 161.472 -5.55112e-17
238 2 96.7056 175.927 -5.55112e-17
239 1 8.8025 109.134 -5.55112e-17
240 1 135.838 105.117 -5.55112e-17
241 2 105.494 76.4911 -5.55112e-17
242 1 55.6058 18.7891 -5.55112e-17
243 2 73.557 24.5159 -5.55112e-17
244 2 184.693 173.83 -5.55112e-17
245 1 101.31 31.7226 -5.55112e-17
246 2 101.608 84.3834 -5.55112e-17
247 2 112.843 58.4008 -5.55112e-17
248 1 66.467 29.4585 -5.55112e-17
249 1 197.017 134.947 -5.55112e-17
250 1 5.16661 95.6053 -5.55112e-17
251 2 151.043 71.9357 -5.55112e-17
252 1 81.22 133.721 -5.55112e-17
253 2 53.6498 173.524 -5.55112e-17
254 2 110.684 146.798 -5.55112e-17
255 2 176.811 109.04 -5.55112e-17
256 1 2.21661 152.362 -5.55112e-17
257 2 118.219 185.806 -5.55112e-17
258 1 107.864 27.0638 -5.55112e-17
259 2 44.6456 147.545 -5.55112e-17
260 1 89.4172 45.6009 -5.55112e-17
261 2 35.6399 36.738 -5.55112e-17
262 2 109.637 141.672 -5.55112e-17
263 2 191.44 195.734 -5.55112e-17
264 1 150.48 51.0558 -5.55112e-17
265 1 171.965 38.4887 -5.55112e-17
266 1 167.04 195.123 -5.55112e-17
267 2 15.5447 51.7978 -5.55112e-17
268 1 52.317 89.5389 -5.55112e-17
269 2 109.813 212.17 -5.55112e-17
270 2 11.9628 3.33161 -5.55112e-17
271 2 199.479 205.078 -5.55112e-17
272 1 23.1829 41.6943 -5.55112e-17
273 1 80.0338 108.597 -5.55112e-17
274 1 208.107 95.3326 -5.55112e-17
275 1 57.7028 31.0045 -5.55112e-17
276 1 184.971 142.503 -5.55112e-17
277 1 64.8395 95.116 -5.55112e-17
278 2 72.5557 46.9996 -5.55112e-17
279 2 113.632 9.90752 -5.55112e-17
280 1 66.4025 102.964 -5.55112e-17
281 2 208.296 121.848 -5.55112e-17
282 2 57.4084 11.9268 -5.55112e-17
283 2 35.5814 131.46 -5.55112e-17
284 1 215.996 5.26351 -5.55112e-17
285 1 198.176 165.626 -5.55112e-17
286 2 196.606 59.9928 -5.55112e-17
287 2 197.687 194.637 -5.55112e-17
288 1 17.0267 91.9388 -5.55112e-17
289 2 38.4892 217.586 -5.55112e-17
290 1 112.399 174.925 -5.55112e-17
291 2 0.173222 189.383 -5.55112e-17
292 1 105.438 203.612 -5.55112e-17
293 1 136.502 32.2948 -5.55112e-17
294 1 62.4597 22.6045 -5.55112e-17
295 2 17.8284 7.77712 -5.55112e-17
296 1 144.947 84.1031 -5.55112e-17
297 1 218.528 128.426 -5.55112e-17
298 2 51.3497 215.372 -5.55112e-17
299 1 186.123 189.796 -5.55112e-17
300 2 166.215 127.731 -5.55112e-17
301 2 70.4507 185.05 -5.55112e-17
302 2 44.6159 85.5885 -5.55112e-17
303 1 132.91 142.546 -5.55112e-17
304 1 110.352 94.9645 -5.55112e-17
305 1 79.2358 32.1149 -5.55112e-17
306 2 50.639 207.295 -5.55112e-17
307 2 198.582 132.906 -5.55112e-17
308 2 157.49 22.09 -5.55112e-17
309 1 201.343 102.388 -5.55112e-17
310 1 60.1288 72.5624 -5.55112e-17
311 1 45.5108 154.843 -5.55112e-17
312 2 127.615 100.219 -5.55112e-17
313 2 216.357 213.55 -5.55112e-17
314 1 100.594 212.134 -5.55112e-17
315 2 159.149 16.122 -5.55112e-17
316 1 97.8633 1.25746 -5.55112e-17
317 1 123.964 109.012 -5.55112e-17
318 1 130.199 133.612 -5.55112e-17
319 2 44.7974 124.132 -5.55112e-17
320 1 55.1591 182.711 -5.55112e-17
321 1 78.1736 141.563 -5.55112e-17
322 1 40.8024 57.0781 -5.55112e-17
323 2 213.442 189.869 -5.55112e-17
324 2 18.148 3.90275 -5.55112e-17
325 2 210.13 117.273 -5.55112e-17
326 1 31.1807 87.6778 -5.55112e-17
327 1 179.942 141.802 -5.55112e-17
328 2 164.828 216.738 -5.55112e-17
329 2 44.2557 3.60317 -5.55112e-17
330 2 180.551 84.5525 -5.55112e-17
331 2 133.352 67.3638 -5.55112e-17
332 2 1.78987 3.92462 -5.55112e-17
333 2 2.67092 6.65392 -5.55112e-17
334 2 48.1427 27.3588 -5.55112e-17
335 1 49.719 167.949 -5.55112e-17
336 2 150.018 22.4781 -5.55112e-17
337 2 123.252 203.828 -5.55112e-17
338 1 60.4626 97.6773 -5.55112e-17
339 2 205.952 94.0541 -5.55112e-17
340 2 216.804 15.2803 -5.55112e-17
341 2 88.1138 27.6113 -5.55112e-17
342 2 196.82 17.9938 -5.55112e-17
343 2 41.3799 165.837 -5.55112e-17
344 1 10.3321 43.2901 -5.55112e-17
345 2 65.2531 26.8602 -5.55112e-17
346 2 11.3639 157.47 -5.55112e-17
347 1 25.9032 217.665 -5.55112e-17
348 1 84.1862 159.183 -5.55112e-17
349 2 99.2074 217.791 -5.55112e-17
350 2 70.889 0.604683 -5.55112e-17
351 1 150.771 29.524 -5.55112e-17
352 1 49.9476 131.491 -5.55112e-17
353 2 150.196 32.3942 -5.55112e-17
354 2 14.1623 73.3546 -5.55112e-17
355 1 143.822 147.532 -5.55112e-17
356 2 180.995 60.8341 -5.55112e-17
357 1 117.772 38.5018 -5.55112e-17
358 1 87.3472 56.4322 -5.55112e-17
359 1 46.5744 171.044 -5.55112e-17
360 1 75.005 40.768 -5.55112e-17
361 2 196.097 75.199 -5.55112e-17
362 2 183.477 77.1287 -5.55112e-17
363 1 11.9517 197.585 -5.55112e-17
364 2 148.346 101.618 -5.55112e-17
365 1 115.314 194.673 -5.55112e-17
366 1 130.019 5.72657 -5.55112e-17
367 1 206.54 26.5097 -5.55112e-17
368 1 22.2872 36.5993 -5.55112e-17
369 2 100.896 40.9778 -5.55112e-17
370 1 184.983 140.056 -5.55112e-17
371 2 205.928 185.192 -5.55112e-17
372 1 85.0622 144.297 -5.55112e-17
373 2 118.198 154.885 -5.55112e-17
374 2 55.7459 102.377 -5.55112e-17
375 1 191.34 188.016 -5.55112e-17
376 1 27.9305 6.73351 -5.55112e-17
377 2 182.911 28.5655 -5.55112e-17
378 2 178.05 162.873 -5.55112e-17
379 2 3.17996 194.791 -5.55112e-17
380 1 169.463 89.465 -5.55112e-17
381 1 190.852 159.57 -5.55112e-17
382 1 149.728 17.6152 -5.55112e-17
383 1 169.904 70.2395 -5.55112e-17
384 2 178.229 134.348 -5.55112e-17
385 1 32.8072 155.494 -5.55112e-17
386 2 119.627 3.84972 -5.55112e-17
387 1 67.0726 14.3257 -5.55112e-17
388 1 216.12 49.5765 -5.55112e-17
389 2 164.824 41.0593 -5.55112e-17
390 1 170.258 5.61233 -5.55112e-17
391 1 184.04 176.154 -5.55112e-17
392 2 136.782 7.66109 -5.55112e-17
393 2 149.78 53.6292 -5.55112e-17
394 1 209.645 66.2292 -5.55112e-17
395 1 82.5144 205.464 -5.55112e-17
396 2 208.03 164.559 -5.55112e-17
397 1 32.585 23.4605 -5.55112e-17
398 2 156.084 199.697 -5.55112e-17
399 2 63.1087 168.754 -5.55112e-17
400 2 142.576 103.04 -5.55112e-17
401 2 70.4728 89.2588 -5.55112e-17
402 1 129.509 61.2871 -5.55112e-17
403 1 36.2862 128.759 -5.55112e-17
404 2 110.432 4.48753 -5.55112e-17
405 1 153.899 62.0139 -5.55112e-17
406 2 47.5294 40.1236 -5.55112e-17
407 1 71.0373 127.426 -5.55112e-17
408 1 161.568 98.3397 -5.55112e-17
409 2 56.8947 208.115 -5.55112e-17
410 2 5.75119 89.9262 -5.55112e-17
411 1 146.598 194.399 -5.55112e-17
412 1 132.327 159.146 -5.55112e-17
413 1 150.033 124.922 -5.55112e-17
414 2 49.5026 164.96 -5.55112e-17
415 1 181.142 26.8535 -5.55112e-17
416 1 118.888 103.9 -5.55112e-17
417 2 146.124 150.929 -5.55112e-17
418 2 157.184 45.878 -5.55112e-17
419 2 64.4637 201.98 -5.55112e-17
420 2 125.116 37.5134 -5.55112e-17
421 1 126.929 114.82 -5.55112e-17
422 1 174.935 62.1394 -5.55112e-17
423 2 4.18613 65.2718 -5.55112e-17
424 2 165.511 48.792 -5.55112e-17
425 2 109.162 71.6754 -5.55112e-17
426 1 26.5756 43.22 -5.55112e-17
427 2 64.6595 23.9549 -5.55112e-17
428 1 109.015 216.052 -5.55112e-17
429 2 31.2658 179.258 -5.55112e-17
430 2 2.73401 94.1574 -5.55112e-17
431 1 192.179 193.155 -5.55112e-17
432 2 80.9276 149.993 -5.55112e-17
433 1 61.994 30.9137 -5.55112e-17
434 1 15.2832 144.808 -5.55112e-17
435 1 63.3071 154.055 -5.55112e-17
436 2 190.867 177.731 -5.55112e-17
437 2 72.129 207.489 -5.55112e-17
438 2 65.6241 37.369 -5.55112e-17
439 2 186.031 24.8862 -5.55112e-17
440 2 8.42083 165.855 -5.55112e-17
441 1 35.3123 74.1298 -5.55112e-17
442 1 45.4824 134.022 -5.55112e-17
443 2 209.669 114.372 -5.55112e-17
444 1 125.003 120.931 -5.55112e-17
445 1 157.658 31.8791 -5.55112e-17
446 2 38.2343 155.43 -5.55112e-17
447 2 158.653 151.787 -5.55112e-17
448 2 65.376 59.5283 -5.55112e-17
449 1 75.1036 52.4348 -5.55112e-17
450 1 86.8424 115.94 -5.55112e-17
451 1 203.696 197.508 -5.55112e-17
452 2 114.719 217.784 -5.55112e-17
453 1 27.3861 202.987 -5.55112e-17
454 1 121.529 154.623 -5.55112e-17
455 2 98.1595 211.31 -5.55112e-17
456 1 172.777 175.796 -5.55112e-17
457 2 72.2182 40.1332 -5.55112e-17
458 2 70.161 109.294 -5.55112e-17
459 2 0.238566 79.2249 -5.55112e-17
460 1 165.119 5.26614 -5.55112e-17
461 1 55.4587 131.996 -5.55112e-17
462 1 91.768 169.83 -5.55112e-17
463 2 27.754 56.1226 -5.55112e-17
464 2 96.791 140.149 -5.55112e-17
465 1 115.961 116.02 -5.55112e-17
466 2 110.15 97.701 -5.55112e-17
467 2 137.897 174.949 -5.55112e-17
468 2 189.386 10.1669 -5.55112e-17
469 2 20.0044 124.96 -5.55112e-17
470 2 124.142 114.32 -5.55112e-17
471 2 134.198 191.075 -5.55112e-17
472 2 202.916 11.9328 -5.55112e-17
473 2 142.653 53.5955 -5.55112e-17
474 2 132.946 180.42 -5.55112e-17
475 1 170.688 18.4237 -5.55112e-17
476 2 31.4962 64.2396 -5.55112e-17
477 1 150.545 35.6539 -5.55112e-17
478 1 9.75124 85.2454 -5.55112e-17
479 2 149.799 157.842 -5.55112e-17
480 1 190.713 198.431 -5.55112e-17
481 1 163.081 154.687 -5.55112e-17
482 2 84.7375 25.119 -5.55112e-17
483 1 185.715 27.3948 -5.55112e-17
484 1 72.0129 79.6707 -5.55112e-17
485 2 153.977 116.341 -5.55112e-17
486 1 140.273 175.361 -5.55112e-17
487 1 199.133 140.779 -5.55112e-17
488 1 167.011 163.306 -5.55112e-17
489 1 151.362 41.266 -5.55112e-17
490 1 55.9504 126.824 -5.55112e-17
491 1 62.5596 124.466 -5.55112e-17
492 2 23.6016 161.601 -5.55112e-17
493 1 68.4474 101.72 -5.55112e-17
494 2 144.892 136.322 -5.55112e-17
495 1 170.52 106.224 -5.55112e-17
496 1 55.3187 43.4244 -5.55112e-17
497 1 93.088 203.299 -5.55112e-17
498 2 161.358 211.818 -5.55112e-17
499 2 197.232 117.059 -5.55112e-17
500 2 45.4652 35.579 -5.55112e-17
501 2 162.432 81.3092 -5.55112e-17
502 2 82.1622 144.995 -5.55112e-17
503 2 169.836 33.252 -5.55112e-17
504 2 124.051 138.104 -5.55112e-17
505 2 84.1983 115.753 -5.55112e-17
506 1 31.7378 17.3032 -5.55112e-17
507 2 26.9899 185.57 -5.55112e-17
508 1 47.4341 184.294 -5.55112e-17
509 1 100.909 75.0973 -5.55112e-17
510 1 45.1998 218.909 -5.55112e-17
511 2 103.274 128.172 -5.55112e-17
512 1 8.91443 208.909 -5.55112e-17
513 2 93.4388 122.836 -5.55112e-17
514 2 167.192 87.8662 -5.55112e-17
515 1 196.08 164.59 -5.55112e-17
516 2 58.5587 118.179 -5.55112e-17
517 1 155.822 143.438 -5.55112e-17
518 2 75.0744 203.671 -5.55112e-17
519 1 208.186 141.996 -5.55112e-17
520 2 97.279 107.255 -5.55112e-17
521 2 35.6999 101.788 -5.55112e-17
522 1 150.402 144.127 -5.55112e-17
523 1 209.947 62.0752 -5.55112e-17
524 2 137.368 145.236 -5.55112e-17
525 2 183.361 155.8 -5.55112e-17
526 2 60.5602 75.3461 -5.55112e-17
527 1 168.586 215.094 -5.55112e-17
528 1 15.8745 182.134 -5.55112e-17
529 2 97.4779 188.507 -5.55112e-17
530 2 103.292 94.1152 -5.55112e-17
531 2 155.385 133.448 -5.55112e-17
532 1 101.872 79.657 -5.55112e-17
533 2 188.115 32.2277 -5.55112e-17
534 1 88.9411 66.9422 -5.55112e-17
535 1 38.9691 212.865 -5.55112e-17
536 2 121.177 114.025 -5.55112e-17
537 1 124.751 111.718 -5.55112e-17
538 1 178.075 193.783 -5.55112e-17
539 2 16.3391 102.242 -5.55112e-17
540 1 0.643867 25.2391 -5.55112e-17
541 1 60.3755 120.04 -5.55112e-17
542 1 97.2565 34.0714 -5.55112e-17
543 2 20.0361 147.529 -5.55112e-17
544 1 162.321 108.54 -5.55112e-17
545 1 129.902 128.244 -5.55112e-17
546 2 187.982 183.239 -5.55112e-17
547 1 142.388 17.2953 -5.55112e-17
548 1 131.524 166.77 -5.55112e-17
549 2 167.57 217.533 -5.55112e-17
550 2 167.355 45.8832 -5.55112e-17
551 2 15.7588 12.7446 -5.55112e-17
552 1 164.639 151.44 -5.55112e-17
553 2 120.511 149.525 -5.55112e-17
554 2 42.4287 49.6339 -5.55112e-17
555 2 154.309 125.666 -5.55112e-17
556 1 137.152 129.816 -5.55112e-17
557 1 9.44162 21.3144 -5.55112e-17
558 1 107.369 166.381 -5.55112e-17
559 2 86.0297 84.6396 -5.55112e-17
560 2 165.929 119.359 -5.55112e-17
561 2 20.464 118.489 -5.55112e-17
562 2 119.844 27.517 -5.55112e-17
563 1 124.957 92.1915 -5.55112e-17
564 2 178.794 149.713 -5.55112e-17
565 2 76.3825 23.2953 -5.55112e-17
566 2 119.207 168.928 -5.55112e-17
567 1 176.523 4.7346 -5.55112e-17
568 1 25.2091 209.7 -5.55112e-17
569 2 78.18 62.0443 -5.55112e-17
570 2 181.059 94.3609 -5.55112e-17
571 2 152.214 91.7288 -5.55112e-17
572 1 110.356 208.714 -5.55112e-17
573 2 125.079 133.786 -5.55112e-17
574 2 118.616 51.0756 -5.55112e-17
575 1 111.201 124.259 -5.55112e-17
576 1 65.3985 9.46919 -5.55112e-17
577 1 190.368 182.834 -5.55112e-17
578 1 137.518 58.7435 -5.55112e-17
579 2 0.882009 9.21274 -5.55112e-17
580 1 61.3145 27.9081 -5.55112e-17
581 1 73.6623 1.28155 -5.55112e-17
582 2 77.8055 180.422 -5.55112e-17
583 2 153.098 94.5141 -5.55112e-17
584 2 104.395 185.183 -5.55112e-17
585 1 213.048 82.4598 -5.55112e-17
586 1 205.336 133.433 -5.55112e-17
587 1 208.627 106.665 -5.55112e-17
588 2 57.3883 62.4783 -5.55112e-17
589 1 36.7581 0.389593 -5.55112e-17
590 2 187.351 106.105 -5.55112e-17
591 2 203.346 187.223 -5.55112e-17
592 1 88.2186 215.907 -5.55112e-17
593 1 202.229 71.2548 -5.55112e-17
594 1 211.71 141.054 -5.55112e-17
595 1 137.288 34.8901 -5.55112e-17
596 2 22.9573 7.8292 -5.55112e-17
597 2 74.182 144.365 -5.55112e-17
598 2 82.4426 138.261 -5.55112e-17
599 2 217.743 181.931 -5.55112e-17
600 2 125.278 127.197 -5.55112e-17
601 1 171.534 88.3025 -5.55112e-17
602 1 167.765 178.648 -5.55112e-17
603 2 152.891 69.8589 -5.55112e-17
604 1 117.173 2.54006 -5.55112e-17
605 2 59.974 9.08488 -5.55112e-17
606 2 177.369 36.2253 -5.55112e-17
607 2 168.686 84.5015 -5.55112e-17
608 2 160.948 70.7583 -5.55112e-17
609 1 205.356 96.4999 -5.55112e-17
610 2 28.4428 141.573 -5.55112e-17
611 1 159.307 164.992 -5.55112e-17
612 1 67.3664 117.421 -5.55112e-17
613 2 76.8867 1.66499 -5.55112e-17
614 1 101.448 204.624 -5.55112e-17
615 1 207.837 100.493 -5.55112e-17
616 2 160.998 111.288 -5.55112e-17
617 1 218.257 197.822 -5.55112e-17
618 1 178.003 54.0746 -5.55112e-17
619 1 55.4922 205.833 -5.55112e-17
620 2 30.8117 192.826 -5.55112e-17
621 2 190.708 132.218 -5.55112e-17
622 2 10.6314 188.634 -5.55112e-17
623 2 75.1366 211.339 -5.55112e-17
624 1 157.859 201.594 -5.55112e-17
625 2 113.077 65.5548 -5.55112e-17
626 1 216.213 204.788 -5.55112e-17
627 2 159.676 103.226 -5.55112e-17
628 1 49.2707 191.739 -5.55112e-17
629 1 134.126 111.972 -5.55112e-17
630 2 165.754 12.344 -5.55112e-17
631 2 24.3086 16.9226 -5.55112e-17
632 2 148.935 40.4629 -5.55112e-17
633 2 24.5645 114.111 -5.55112e-17
634 2 191.906 105.609 -5.55112e-17
635 2 215.121 98.1218 -5.55112e-17
636 1 85.288 197.184 -5.55112e-17
637 1 172.821 4.53691 -5.55112e-17
638 1 213.535 45.4059 -5.55112e-17
639 2 169.213 99.2685 -5.55112e-17
640 2 98.4457 46.7176 -5.55112e-17
641 1 211.73 35.1203 -5.55112e-17
642 2 119.704 152.525 -5.55112e-17
643 1 110.856 194.625 -5.55112e-17
644 2 151.837 25.0585 -5.55112e-17
645 2 53.2941 116.52 -5.55112e-17
646 1 40.454 185.27 -5.55112e-17
647 2 110.741 23.0955 -5.55112e-17
648 2 100.328 92.762 -5.55112e-17
649 1 13.4987 82.8072 -5.55112e-17
650 1 123.425 184.807 -5.55112e-17
651 1 183.467 121.131 -5.55112e-17
652 2 193.924 188.693 -5.55112e-17
653 2 16.2332 27.4445 -5.55112e-17
654 1 190.664 69.3447 -5.55112e-17
655 1 148.363 72.6272 -5.55112e-17
656 1 106.385 216.469 -5.55112e-17
657 1 12.3625 80.5591 -5.55112e-17
658 2 135.664 194.06 -5.55112e-17
659 2 194.113 110.08 -5.55112e-17
660 1 1.99704 1.25087 -5.55112e-17
661 2 111.954 118.417 -5.55112e-17
662 2 163.61 123.706 -5.55112e-17
663 1 193.451 68.416 -5.55112e-17
664 1 65.6683 87.4522 -5.55112e-17
665 1 37.9937 43.6038 -5.55112e-17
666 1 71.6873 82.1631 -5.55112e-17
667 1 162.081 157.135 -5.55112e-17
668 1 184.697 74.4165 -5.55112e-17
669 1 67.2878 39.0384 -5.55112e-17
670 2 186.484 151.695 -5.55112e-17
671 1 133.543 202.971 -5.55112e-17
672 1 152.81 46.5461 -5.55112e-17
673 2 174.38 168.089 -5.55112e-17
674 2 118.237 198.369 -5.55112e-17
675 2 152.889 135.765 -5.55112e-17
676 1 119.272 55.6096 -5.55112e-17
677 2 155.284 68.393 -5.55112e-17
678 1 195.724 25.9526 -5.55112e-17
679 1 93.6517 72.5161 -5.55112e-17
680 2 174.084 37.1434 -5.55112e-17
681 1 76.5027 9.09311 -5.55112e-17
682 1 166.589 14.8155 -5.55112e-17
683 2 202.3 166.98 -5.55112e-17
684 1 211.953 211.608 -5.55112e-17
685 1 157.986 136.978 -5.55112e-17
686 1 40.9412 15.8686 -5.55112e-17
687 1 36.4567 17.4353 -5.55112e-17
688 1 127.643 165.853 -5.55112e-17
689 2 110.789 121.28 -5.55112e-17
690 1 144.412 165.944 -5.55112e-17
691 2 89.595 120.318 -5.55112e-17
692 2 186.705 76.2647 -5.55112e-17
693 1 107.507 201.935 -5.55112e-17
694 2 156.188 145.995 -5.55112e-17
695 2 88.9399 140.492 -5.55112e-17
696 2 62.1054 193.548 -5.55112e-17
697 1 125.431 28.506 -5.55112e-17
698 2 173.681 209.668 -5.55112e-17
699 1 49.4858 202.964 -5.55112e-17
700 2 212.761 196.582 -5.55112e-17
701 2 62.1211 14.1932 -5.55112e-17
702 1 49.704 12.3111 -5.55112e-17
703 1 178.182 44.0782 -5.55112e-17
704 1 39.8013 141.418 -5.55112e-17
705 1 8.24872 200.451 -5.55112e-17
706 1 192.768 119.693 -5.55112e-17
707 1 150.002 43.354 -5.55112e-17
708 2 21.2394 34.316 -5.55112e-17
709 1 94.701 116.084 -5.55112e-17
710 2 78.2803 148.43 -5.55112e-17
711 2 133.689 46.9315 -5.55112e-17
712 1 200.15 45.0697 -5.55112e-17
713 1 126.965 22.9966 -5.55112e-17
714 2 132.275 194.031 -5.55112e-17
715 2 176.055 211.848 -5.55112e-17
716 1 62.136 186.402 -5.55112e-17
717 1 20.7425 99.0174 -5.55112e-17
718 2 7.162 75.4803 -5.55112e-17
719 1 90.6755 70.966 -5.55112e-17
720 2 218.36 125.708 -5.55112e-17
721 2 14.33 113.998 -5.55112e-17
722 2 11.2256 102.25 -5.55112e-17
723 2 10.5491 48.1686 -5.55112e-17
724 2 49.785 194.275 -5.55112e-17
725 2 23.46 59.2905 -5.55112e-17
726 2 204.876 87.5476 -5.55112e-17
727 2 166.432 133.197 -5.55112e-17
728 1 160.51 91.2639 -5.55112e-17
729 2 204.348 7.81377 -5.55112e-17
730 2 206.053 139.51 -5.55112e-17
731 1 175.562 129.857 -5.55112e-17
732 2 134.609 34.3285 -5.55112e-17
733 2 190.7 215.507 -5.55112e-17
734 2 74.2409 194.65 -5.55112e-17
735 2 85.3284 189.714 -5.55112e-17
736 1 71.0487 49.4475 -5.55112e-17
737 2 55.9684 157.814 -5.55112e-17
738 2 138.234 164.919 -5.55112e-17
739 2 170.973 49.0484 -5.55112e-17
740 2 116.829 107.215 -5.55112e-17
741 2 134.253 188.235 -5.55112e-17
742 1 37.2411 149.855 -5.55112e-17
743 2 53.0704 77.5368 -5.55112e-17
744 1 41.0643 78.8895 -5.55112e-17
745 2 154.534 141.302 -5.55112e-17
746 1 143.053 95.5098 -5.55112e-17
747 1 177.641 136.97 -5.55112e-17
748 2 48.4729 104.833 -5.55112e-17
749 1 146.772 27.542 -5.55112e-17
750 1 197.409 9.67429 -5.55112e-17
751 1 18.3994 207.81 -5.55112e-17
752 2 107.253 199.36 -5.55112e-17
753 1 167.47 156.069 -5.55112e-17
754 2 125.262 116.792 -5.55112e-17
755 1 88.716 196.328 -5.55112e-17
756 2 11.558 6.46338 -5.55112e-17
757 1 55.4382 24.4906 -5.55112e-17
758 2 77.3638 20.3047 -5.55112e-17
759 1 67.0682 32.5851 -5.55112e-17
760 1 141.252 5.15072 -5.55112e-17
761 2 127.276 62.8605 -5.55112e-17
762 1 145.086 7.08511 -5.55112e-17
763 2 125.929 13.0448 -5.55112e-17
764 2 112.062 28.2458 -5.55112e-17
765 1 102.818 4.81585 -5.55112e-17
766 2 213.804 92.3702 -5.55112e-17
767 2 172.329 7.22512 -5.55112e-17
768 2 171.681 167.948 -5.55112e-17
769 2 20.8065 43.038 -5.55112e-17
770 1 152.312 8.37727 -5.55112e-17
771 1 72.7221 153.033 -5.55112e-17
772 1 136.279 162.789 -5.55112e-17
773 2 13.0172 128.587 -5.55112e-17
774 1 18.3693 162.883 -5.55112e-17
775 1 131.456 130.176 -5.55112e-17
776 2 140.363 140.909 -5.55112e-17
777 2 125.513 16.3769 -5.55112e-17
778 1 72.1261 3.09644 -5.55112e-17
779 1 97.0961 196.614 -5.55112e-17
780 2 27.7795 27.8728 -5.55112e-17
781 1 211.176 209.534 -5.55112e-17
782 2 148.721 209.799 -5.55112e-17
783 1 121.812 120.919 -5.55112e-17
784 2 123.438 168.417 -5.55112e-17
785 1 14.2646 32.6005 -5.55112e-17
786 1 143.641 32.3385 -5.55112e-17
787 2 185.517 33.1842 -5.55112e-17
788 2 73.1333 101.988 -5.55112e-17
789 2 190.212 209.764 -5.55112e-17
790 2 20.6938 63.5629 -5.55112e-17
791 2 82.2031 32.6754 -5.55112e-17
792 1 27.4036 200.295 -5.55112e-17
793 1 140.033 24.9716 -5.55112e-17
794 2 112.645 51.0402 -5.55112e-17
795 2 72.1714 74.0424 -5.55112e-17
796 1 53.4793 158.499 -5.55112e-17
797 1 185.227 160.874 -5.55112e-17
798 1 75.3154 84.6329 -5.55112e-17
799 2 108.257 15.6989 -5.55112e-17
800 1 141.283 98.3661 -5.55112e-17
801 2 91.9753 56.7402 -5.55112e-17
802 1 11.6469 176.747 -5.55112e-17
803 1 188.992 74.8682 -5.55112e-17
804 1 34.5681 93.811 -5.55112e-17
805 2 64.6982 138.326 -5.55112e-17
806 2 84.7776 146.712 -5.55112e-17
807 2 48.6374 56.2372 -5.55112e-17
808 2 70.2484 54.5809 -5.55112e-17
809 1 38.9202 162.294 -5.55112e-17
810 2 76.0486 95.425 -5.55112e-17
811 2 182.378 141.611 -5.55112e-17
812 1 64.4998 5.03156 -5.55112e-17
813 1 161.154 33.6263 -5.55112e-17
814 1 129.58 198.718 -5.55112e-17
815 1 187.469 161.7 -5.55112e-17
816 1 136.838 177.335 -5.55112e-17
817 2 75.9307 57.9667 -5.55112e-17
818 2 179.11 91.8062 -5.55112e-17
819 2 54.0639 63.8392 -5.55112e-17
820 1 82.0252 87.1301 -5.55112e-17
821 1 133.932 11.5407 -5.55112e-17
822 2 199.615 157.899 -5.55112e-17
823 1 139.767 54.054 -5.55112e-17
824 1 28.6701 74.0687 -5.55112e-17
825 1 17.7378 212.674 -5.55112e-17
826 2 162.768 55.4606 -5.55112e-17
827 2 118.517 66.1038 -5.55112e-17
828 1 32.9681 51.6707 -5.55112e-17
829 2 163.17 36.4397 -5.55112e-17
830 1 21.2922 73.4108 -5.55112e-17
831 2 59.9246 169.912 -5.55112e-17
832 2 130.001 164.815 -5.55112e-17
833 2 67.9971 210.282 -5.55112e-17
834 1 129.477 64.2823 -5.55112e-17
835 1 186.455 159.012 -5.55112e-17
836 1 54.9567 148.107 -5.55112e-17
837 2 82.348 74.6403 -5.55112e-17
838 2 6.73288 84.591 -5.55112e-17
839 1 43.0413 56.0721 -5.55112e-17
840 2 79.3188 5.78598 -5.55112e-17
841 2 101.465 19.7628 -5.55112e-17
842 1 17.5898 68.9424 -5.55112e-17
843 1 137.815 203.987 -5.55112e-17
844 2 190.881 76.6003 -5.55112e-17
845 1 17.2567 166.988 -5.55112e-17
846 2 115.394 29.0498 -5.55112e-17
847 1 42.8535 43.4156 -5.55112e-17
848 2 203.928 62.7687 -5.55112e-17
849 1 18.4272 89.3853 -5.55112e-17
850 2 137.377 15.7939 -5.55112e-17
851 2 34.6926 29.6315 -5.55112e-17
852 1 25.93 118.974 -5.55112e-17
853 1 2.17016 114.163 -5.55112e-17
854 2 123.852 187.167 -5.55112e-17
855 2 44.772 7.34814 -5.55112e-17
856 1 194.932 86.069 -5.55112e-17
857 2 182.185 74.5155 -5.55112e-17