ITEM: TIMESTEP
0
ITEM: NUMBER OF ATOMS
7200
ITEM: BOX BOUNDS xy xz yz pp pp pp
0.0000000000000000e+00 2.1900000000000000e+02 0.0000000000000000e+00
0.0000000000000000e+00 2.1900000000000000e+02 0.0000000000000000e+00
-3.6499999999999999e-01 3.6499999999999999e-01 0.0000000000000000e+00
ITEM: ATOMS id type x y z
1 1 74.8765 165.931 -5.55112e-17
2 2 23.6851 156.467 -5.55112e-17
3 2 187.41 110.938 -5.55112e-17
4 1 215.094 166.222 -5.55112e-17
5 1 170.319 85.9078 -5.55112e-17
6 1 205.156 140.235 -5.55112e-17
7 2 101.767 126.882 -5.55112e-17
8 2 54.5952 157.618 -5.55112e-17
9 1 87.396 64.3557 -5.55112e-17
10 2 68.2436 63.0049 -5.55112e-17
11 2 168.951 71.3768 -5.55112e-17
12 1 106.932 186.796 -5.55112e-17
13 2 147.451 154.544 -5.55112e-17
14 1 128.612 49.0972 -5.55112e-17
15 2 161.14 91.9231 -5.55112e-17
16 2 165.752 51.0014 -5.55112e-17
17 1 188.018 163.721 -5.55112e-17
18 2 137.64 168.24 -5.55112e-17
19 1 202.869 116.529 -5.55112e-17
20 1 155.015 38.9136 -5.55112e-17
21 1 170.12 129.292 -5.55112e-17
22 2 179.571 61.9568 -5.55112e-17
23 2 29.8778 202.538 -5.55112e-17
24 2 186.079 182.969 -5.55112e-17
25 2 4.99096 115.704 -5.55112e-17
26 2 205.518 115.328 -5.55112e-17
27 1 195.809 95.7593 -5.55112e-17
28 2 184.925 63.766 -5.55112e-17
29 2 59.1782 205.143 -5.55112e-17
30 2 131.767 26 -5.55112e-17
31 2 48.8833 60.3009 -5.55112e-17
32 1 119.634 31.7038 -5.55112e-17
33 2 83.6596 189.512 -5.55112e-17
34 2 33.1179 130.089 -5.55112e-17
35 2 206.922 35.5715 -5.55112e-17
36 1 217.317 175.721 -5.55112e-17
37 1 108.713 165.763 -5.55112e-17
38 2 135.297 108.78 -5.55112e-17
39 1 91.2107 105.631 -5.55112e-17
40 2 211.011 65.0683 -5.55112e-17
41 1 92.6383 218.953 -5.55112e-17
42 1 180.489 37.9523 -5.55112e-17
43 1 28.8633 165.3 -5.55112e-17
44 1 129.72 38.1336 -5.55112e-17
45 2 170.746 151.275 -5.55112e-17
46 1 76.0833 205.73 -5.55112e-17
47 2 80.5832 10.0531 -5.55112e-17
48 2 148.657 76.5558 -5.55112e-17
49 1 141.637 153.156 -5.55112e-17
50 2 167.058 171.677 -5.55112e-17
51 1 109.02 194.343 -5.55112e-17
52 1 110.974 167.169 -5.55112e-17
53 2 134.054 204.263 -5.55112e-17
54 1 55.2672 117.77 -5.55112e-17
55 2 35.5125 177.915 -5.55112e-17
56 1 164.193 53.3264 -5.55112e-17
57 2 67.3825 181.876 -5.55112e-17
58 1 147.409 198.569 -5.55112e-17
59 1 127.421 184.86 -5.55112e-17
60 2 194.283 218.202 -5.55112e-17
61 1 208.049 90.7041 -5.55112e-17
62 1 49.9463 24.4962 -5.55112e-17
63 2 175.834 160.36 -5.55112e-17
64 1 29.4988 28.9789 -5.55112e-17
65 2 64.9471 138.364 -5.55112e-17
66 2 199.753 156.669 -5.55112e-17
67 2 64.8673 50.5549 -5.55112e-17
68 1 142.889 182.696 -5.55112e-17
69 2 142.382 180.026 -5.55112e-17
70 1 109.231 153.095 -5.55112e-17
71 1 217.16 205.943 -5.55112e-17
72 2 15.999 1.17368 -5.55112e-17
73 2 61.2879 4.87909 -5.55112e-17
74 2 152.857 155.752 -5.55112e-17
75 1 166.584 73.2052 -5.55112e-17
76 2 86.6351 103.651 -5.55112e-17
77 2 27.3938 148.154 -5.55112e-17
78 1 194.906 87.2325 -5.55112e-17
79 2 95.7393 27.3277 -5.55112e-17
80 1 79.6653 56.2288 -5.55112e-17
81 1 144.544 111.558 -5.55112e-17
82 1 58.7971 130.178 -5.55112e-17
83 1 169.718 161.132 -5.55112e-17
84 2 94.0853 78.0777 -5.55112e-17
85 2 34.229 3.51157 -5.55112e-17
86 2 112.343 110.456 -5.55112e-17
87 2 19.9676 132.005 -5.55112e-17
88 1 24.76 121.111 -5.55112e-17
89 2 0.563715 140.656 -5.55112e-17
90 2 45.2303 6.98145 -5.55112e-17
91 2 204.106 8.28553 -5.55112e-17
92 1 152.688 122.628 -5.55112e-17
93 2 116.767 124.2 -5.55112e-17
94 2 32.7029 189.443 -5.55112e-17
95 1 132.302 170.871 -5.55112e-17
96 2 24.7396 29.7671 -5.55112e-17
97 2 141.153 192.951 -5.55112e-17
98 2 182.369 43.1883 -5.55112e-17
99 1 136.665 204.891 -5.55112e-17
100 2 106.688 193.405 -5.55112e-17
101 1 54.4396 113.522 -5.55112e-17
102 1 33.6242 186.027 -5.55112e-17
103 2 140.736 190.096 -5.55112e-17
104 2 116.547 105.008 -5.55112e-17
105 1 69.7814 131.811 -5.55112e-17
106 1 175.859 26.913 -5.55112e-17
107 1 110.957 171.203 -5.55112e-17
108 1 80.0193 202.501 -5.55112e-17
109 2 98.7158 106.349 -5.55112e-17
110 2 146.489 215.779 -5.55112e-17
111 1 119.824 10.6675 -5.55112e-17
112 2 207.105 4.53561 -5.55112e-17
113 1 36.5087 24.2688 -5.55112e-17
114 1 42.3629 173.464 -5.55112e-17
115 2 184.668 137.083 -5.55112e-17
116 2 186.511 120.986 -5.55112e-17
117 1 80.6645 179.638 -5.55112e-17
118 1 27.5531 89.6296 -5.55112e-17
119 2 99.7831 95.0862 -5.55112e-17
120 2 103.316 31.2142 -5.55112e-17
121 1 72.7749 57.1185 -5.55112e-17
122 2 94.0193 36.1318 -5.55112e-17
123 2 106.704 170.928 -5.55112e-17
124 1 38.6822 23.7144 -5.55112e-17
125 1 150.444 123.839 -5.55112e-17
126 2 158.655 128.109 -5.55112e-17
127 2 191.617 12.9238 -5.55112e-17
128 1 180.578 83.4306 -5.55112e-17
129 1 26.1494 32.1755 -5.55112e-17
130 2 153.579 180.644 -5.55112e-17
131 1 164.622 126.803 -5.55112e-17
132 1 30.6262 101.501 -5.55112e-17
133 1 157.016 169.498 -5.55112e-17
134 1 195.288 138.365 -5.55112e-17
135 2 88.264 165.202 -5.55112e-17
136 1 153.152 213.82 -5.55112e-17
137 1 161.035 81.3699 -5.55112e-17
138 2 25.9572 208.435 -5.55112e-17
139 1 190.192 87.7119 -5.55112e-17
140 1 209.084 205.959 -5.55112e-17
141 1 66.2027 67.2091 -5.55112e-17
142 1 197.998 154.328 -5.55112e-17
143 1 86.9102 60.1049 -5.55112e-17
144 1 165.842 14.0774 -5.55112e-17
145 2 103.456 12.1822 -5.55112e-17
146 1 50.0998 187.303 -5.55112e-17
147 2 218.311 55.0571 -5.55112e-17
148 1 136.16 132.169 -5.55112e-17
149 1 203.499 144.053 -5.55112e-17
150 2 138.584 107.49 -5.55112e-17
151 1 94.0363 80.8634 -5.55112e-17
152 1 127.743 79.147 -5.55112e-17
153 2 212.897 181.955 -5.55112e-17
154 1 167.377 112.407 -5.55112e-17
155 2 193.425 9.98286 -5.55112e-17
156 2 47.0602 22.4395 -5.55112e-17
157 2 107.696 57.5989 -5.55112e-17
158 2 60.1912 179.449 -5.55112e-17
159 2 29.4978 179.623 -5.55112e-17
160 2 165.868 28.9767 -5.55112e-17
161 2 216.206 64.9322 -5.55112e-17
162 1 11.5083 27.5788 -5.55112e-17
163 1 203.523 134.927 -5.55112e-17
164 2 38.2512 26.3484 -5.55112e-17
165 1 142.932 185.943 -5.55112e-17
166 2 136.92 117.419 -5.55112e-17
167 1 15.2794 200.697 -5.55112e-17
168 1 20.2034 45.47 -5.55112e-17
169 2 87.9545 189.611 -5.55112e-17
170 1 112.57 15.8584 -5.55112e-17
171 1 133.594 9.02657 -5.55112e-17
172 1 73.7155 172.645 -5.55112e-17
173 1 207.441 10.3495 -5.55112e-17
174 2 102.687 95.9876 -5.55112e-17
175 2 189.394 140.501 -5.55112e-17
176 1 146.333 39.7844 -5.55112e-17
177 2 73.6079 1.35763 -5.55112e-17
178 1 39.1872 149.642 -5.55112e-17
179 2 21.1411 3.36042 -5.55112e-17
180 1 117.273 62.2935 -5.55112e-17
181 1 48.8978 218.868 -5.55112e-17
182 1 54.8581 95.153 -5.55112e-17
183 1 90.3998 97.2568 -5.55112e-17
184 2 119.1 22.2113 -5.55112e-17
185 2 118.595 121.943 -5.55112e-17
186 2 203.721 18.2005 -5.55112e-17
187 2 140.41 216.024 -5.55112e-17
188 2 213.847 117.828 -5.55112e-17
189 1 174.382 127.166 -5.55112e-17
190 1 116.979 107.367 -5.55112e-17
191 2 41.6429 167.326 -5.55112e-17
192 2 46.6342 32.6671 -5.55112e-17
193 1 1.13916 109.591 -5.55112e-17
194 1 97.8352 170.438 -5.55112e-17
195 2 105.569 96.5699 -5.55112e-17
196 1 76.033 48.4908 -5.55112e-17
197 2 174.47 87.8724 -5.55112e-17
198 2 116.733 145.48 -5.55112e-17
199 2 135.434 38.4478 -5.55112e-17
200 2 18.5916 195.495 -5.55112e-17
201 2 65.7014 135.194 -5.55112e-17
202 1 40.3568 9.28092 -5.55112e-17
203 1 11.6352 33.3391 -5.55112e-17
204 2 85.9085 215.596 -5.55112e-17
205 2 176.237 154.974 -5.55112e-17
206 2 130.857 20.6493 -5.55112e-17
207 1 181.468 170.139 -5.55112e-17
208 2 216.963 95.1508 -5.55112e-17
209 2 32.7042 37.9586 -5.55112e-17
210 1 60.6019 44.9911 -5.55112e-17
211 1 20.1265 200.236 -5.55112e-17
212 1 60.6952 29.6415 -5.55112e-17
213 1 124.579 127.646 -5.55112e-17
214 2 161.935 117.671 -5.55112e-17
215 1 192.923 78.0606 -5.55112e-17
216 1 20.3617 192.766 -5.55112e-17
217 1 133.069 19.2015 -5.55112e-17
218 2 49.6522 164.763 -5.55112e-17
219 2 212.808 113.351 -5.55112e-17
220 1 69.3417 18.3307 -5.55112e-17
221 2 135.099 163.678 -5.55112e-17
222 1 60.7413 136.784 -5.55112e-17
223 1 45.3965 106.626 -5.55112e-17
224 2 118.046 118.73 -5.55112e-17
225 2 28.3867 58.2378 -5.55112e-17
226 1 94.2098 156.067 -5.55112e-17
227 2 147.148 171.489 -5.55112e-17
228 2 28.5025 92.1675 -5.55112e-17
229 1 46.6624 196.861 -5.55112e-17
230 1 108.123 10.6157 -5.55112e-17
231 2 177.259 164.747 -5.55112e-17
232 1 141.463 218.246 -5.55112e-17
233 2 78.1334 124.291 -5.55112e-17
234 1 140.722 183.972 -5.55112e-17
235 1 218.334 63.7215 -5.55112e-17
236 2 155.68 154.77 -5.55112e-17
237 2 152.747 91.0788 -5.55112e-17
238 2 141.471 17.926 -5.55112e-17
239 1 159.172 35.0956 -5.55112e-17
240 1 170.916 95.1182 -5.55112e-17
241 2 139.785 1.69884 -5.55112e-17
242 1 80.1454 119.954 -5.55112e-17
243 2 127.572 160.679 -5.55112e-17
244 2 17.5513 96.4113 -5.55112e-17
245 1 49.4509 9.91026 -5.55112e-17
246 2 49.104 184.958 -5.55112e-17
247 2 122.138 11.9556 -5.55112e-17
248 1 45.8526 93.2638 -5.55112e-17
249 1 91.2319 204.628 -5.55112e-17
250 1 103.253 164.742 -5.55112e-17
251 2 65.6977 155.833 -5.55112e-17
252 1 170.77 73.8542 -5.55112e-17
253 2 68.2935 77.138 -5.55112e-17
254 2 133.334 11.4276 -5.55112e-17
255 2 91.8238 160.85 -5.55112e-17
256 1 166.041 149.155 -5.55112e-17
257 2 171.46 4.30937 -5.55112e-17
258 1 47.8728 97.6944 -5.55112e-17
259 2 212.103 0.0145643 -5.55112e-17
260 1 49.534 107.46 -5.55112e-17
261 2 31.3538 40.506 -5.55112e-17
262 2 166.285 114.973 -5.55112e-17
263 2 181.777 109.612 -5.55112e-17
264 1 38.407 191.9 -5.55112e-17
265 1 20.4901 105.657 -5.55112e-17
266 1 209.882 56.551 -5.55112e-17
267 2 150.474 95.8892 -5.55112e-17
268 1 195.482 150.795 -5.55112e-17
269 2 104.294 7.2666 -5.55112e-17
270 2 21.2147 14.3255 -5.55112e-17
271 2 142.626 145.821 -5.55112e-17
272 1 195.297 133.798 -5.55112e-17
273 1 121.417 33.4339 -5.55112e-17
274 1 88.0633 44.2339 -5.55112e-17
275 1 153.386 163.829 -5.55112e-17
276 1 197.368 110.427 -5.55112e-17
277 1 33.0351 5.79148 -5.55112e-17
278 2 81.769 212.719 -5.55112e-17
279 2 198.226 143.721 -5.55112e-17
280 1 12.812 69.0321 -5.55112e-17
281 2 45.1811 29.6257 -5.55112e-17
282 2 176.407 34.8381 -5.55112e-17
283 2 181.908 20.2993 -5.55112e-17
284 1 163.056 163.614 -5.55112e-17
285 1 39.2465 103.101 -5.55112e-17
286 2 55.5155 173.027 -5.55112e-17
287 2 100.475 31.5818 -5.55112e-17
288 1 134.15 115.898 -5.55112e-17
289 2 104.845 195.427 -5.55112e-17
290 1 118.321 89.4351 -5.55112e-17
291 2 33.2271 31.8539 -5.55112e-17
292 1 91.2211 87.0554 -5.55112e-17
293 1 91.826 183.449 -5.55112e-17
294 1 125.311 95.015 -5.55112e-17
295 2 60.243 61.1473 -5.55112e-17
296 1 18.6454 79.3106 -5.55112e-17
297 1 82.8768 41.9892 -5.55112e-17
298 2 19.4146 213.401 -5.55112e-17
299 1 126.605 16.3042 -5.55112e-17
300 2 151.257 128.131 -5.55112e-17
301 2 32.9351 167.731 -5.55112e-17
302 2 5.64326 61.1243 -5.55112e-17
303 1 216.398 15.229 -5.55112e-17
304 1 87.5313 115.887 -5.55112e-17
305 1 165.381 209.499 -5.55112e-17
306 2 147.435 50.3799 -5.55112e-17
307 2 44.4561 75.9769 -5.55112e-17
308 2 50.0241 96.1034 -5.55112e-17
309 1 214.589 175.443 -5.55112e-17
310 1 26.6176 6.53328 -5.55112e-17
311 1 83.0409 174.465 -5.55112e-17
312 2 92.4734 5.06183 -5.55112e-17
313 2 158.552 29.6304 -5.55112e-17
314 1 160.453 27.3937 -5.55112e-17
315 2 47.4285 192.24 -5.55112e-17
316 1 49.9705 127.069 -5.55112e-17
317 1 67.0994 212.443 -5.55112e-17
318 1 157.361 123.341 -5.55112e-17
319 2 92.3497 144.728 -5.55112e-17
320 1 161.363 35.4774 -5.55112e-17
321 1 168.925 102.26 -5.55112e-17
322 1 163.155 143.657 -5.55112e-17
323 2 200.881 153.757 -5.55112e-17
324 2 158.846 204.949 -5.55112e-17
325 2 103.65 169.501 -5.55112e-17
326 1 101.637 106.276 -5.55112e-17
327 1 28.8759 145.883 -5.55112e-17
328 2 119.716 145.803 -5.55112e-17
329 2 107.366 141.554 -5.55112e-17
330 2 74.9145 161 -5.55112e-17
331 2 117.784 138.69 -5.55112e-17
332 2 32.1793 124.683 -5.55112e-17
333 2 58.7498 182 -5.55112e-17
334 2 46.682 90.8536 -5.55112e-17
335 1 14.7919 35.5225 -5.55112e-17
336 2 142.698 10.2109 -5.55112e-17
337 2 217.689 165.362 -5.55112e-17
338 1 10.5546 60.035 -5.55112e-17
339 2 96.3833 141.482 -5.55112e-17
340 2 117.635 172.866 -5.55112e-17
341 2 187.371 86.795 -5.55112e-17
342 2 76.3236 22.2331 -5.55112e-17
343 2 14.6048 120.402 -5.55112e-17
344 1 116.333 136.23 -5.55112e-17
345 2 90.8156 141.722 -5.55112e-17
346 2 54.6119 89.6281 -5.55112e-17
347 1 17.875 204.19 -5.55112e-17
348 1 184.83 56.4913 -5.55112e-17
349 2 34.8568 124.206 -5.55112e-17
350 2 190.354 109.834 -5.55112e-17
351 1 48.9558 208.277 -5.55112e-17
352 1 170.533 1.9825 -5.55112e-17
353 2 44.2745 21.0526 -5.55112e-17
354 2 23.4749 17.4633 -5.55112e-17
355 1 145.047 9.89281 -5.55112e-17
356 2 153.012 176.174 -5.55112e-17
357 1 32.1253 1.56603 -5.55112e-17
358 1 155.441 185.071 -5.55112e-17
359 1 200.81 165.799 -5.55112e-17
360 1 121.961 146.972 -5.55112e-17
361 2 30.563 139.751 -5.55112e-17
362 2 198.852 215.942 -5.55112e-17
363 1 78.2175 60.949 -5.55112e-17
364 2 17.6841 206.946 -5.55112e-17
365 1 115.738 81.8753 -5.55112e-17
366 1 99.6893 73.4737 -5.55112e-17
367 1 167.088 214.564 -5.55112e-17
368 1 119.161 198.51 -5.55112e-17
369 2 121.35 151.518 -5.55112e-17
370 1 186.739 4.52173 -5.55112e-17
371 2 139.02 49.3838 -5.55112e-17
372 1 53.4999 155.267 -5.55112e-17
373 2 28.4086 8.39189 -5.55112e-17
374 2 72.3907 182.036 -5.55112e-17
375 1 2.11897 106.716 -5.55112e-17
376 1 165.53 182.986 -5.55112e-17
377 2 209.303 96.6416 -5.55112e-17
378 2 68.7353 66.4181 -5.55112e-17
379 2 103.453 23.7946 -5.55112e-17
380 1 177.838 52.6506 -5.55112e-17
381 1 165.739 160.315 -5.55112e-17
382 1 189.55 112.127 -5.55112e-17
383 1 53.8196 216.263 -5.55112e-17
384 2 127.84 94.1869 -5.55112e-17
385 1 167.322 44.5273 -5.55112e-17
386 2 104.541 44.7037 -5.55112e-17
387 1 112.139 187.279 -5.55112e-17
388 1 182.89 186.391 -5.55112e-17
389 2 30.4132 114.463 -5.55112e-17
390 1 107.411 202.32 -5.55112e-17
391 1 123.302 25.2873 -5.55112e-17
392 2 191.978 187.527 -5.55112e-17
393 2 121.816 49.7171 -5.55112e-17
394 1 19.4187 71.5143 -5.55112e-17
395 1 63.9882 164.446 -5.55112e-17
396 2 41.5423 39.0276 -5.55112e-17
397 1 120.481 202.246 -5.55112e-17
398 2 190.501 162.463 -5.55112e-17
399 2 212.278 174.44 -5.55112e-17
400 2 205.248 104.475 -5.55112e-17
401 2 149.564 10.5477 -5.55112e-17
402 1 212.218 60.8893 -5.55112e-17
403 1 48.4487 89.0519 -5.55112e-17
404 2 52.5493 152.716 -5.55112e-17
405 1 176.052 31.9539 -5.55112e-17
406 2 199.513 159.963 -5.55112e-17
407 1 212.238 152.351 -5.55112e-17
408 1 217.917 67.3049 -5.55112e-17
409 2 49.5007 15.2419 -5.55112e-17
410 2 101.871 28.216 -5.55112e-17
411 1 179.261 159.607 -5.55112e-17
412 1 126.083 89.5432 -5.55112e-17
413 1 30.456 48.7625 -5.55112e-17
414 2 6.7014 53.1006 -5.55112e-17
415 1 62.1283 200.331 -5.55112e-17
416 1 154.03 23.4918 -5.55112e-17
417 2 72.7674 62.7701 -5.55112e-17
418 2 92.3025 65.6315 -5.55112e-17
419 2 187.625 135.427 -5.55112e-17
420 2 48.0125 43.4781 -5.55112e-17
421 1 82.9841 187.017 -5.55112e-17
422 1 124.398 63.2249 -5.55112e-17
423 2 85.6368 178.922 -5.55112e-17
424 2 34.8996 162.12 -5.55112e-17
425 2 39.6736 152.082 -5.55112e-17
426 1 202.656 121.821 -5.55112e-17
427 2 57.0071 93.76 -5.55112e-17
428 1 160.496 45.5186 -5.55112e-17
429 2 109.857 99.1527 -5.55112e-17
430 2 179.293 169.082 -5.55112e-17
431 1 99.5971 101.85 -5.55112e-17
432 2 111.121 56.2828 -5.55112e-17
433 1 21.5857 93.9951 -5.55112e-17
434 1 173.327 2.64934 -5.55112e-17
435 1 70.9029 64.2257 -5.55112e-17
436 2 217.745 188.238 -5.55112e-17
437 2 103.773 121.792 -5.55112e-17
438 2 189.536 65.2416 -5.55112e-17
439 2 122.748 125.334 -5.55112e-17
440 2 15.5621 203.465 -5.55112e-17
441 1 9.50941 180.075 -5.55112e-17
442 1 76.9598 147.819 -5.55112e-17
443 2 67.5617 37.8828 -5.55112e-17
444 1 176.292 65.6157 -5.55112e-17
445 1 94.1855 151.542 -5.55112e-17
446 2 2.91399 60.1413 -5.55112e-17
447 2 119.241 136.278 -5.55112e-17
448 2 21.586 34.7871 -5.55112e-17
449 1 73.8022 53.1971 -5.55112e-17
450 1 94.3055 93.7219 -5.55112e-17
451 1 58.5794 58.6814 -5.55112e-17
452 2 174.446 46.0921 -5.55112e-17
453 1 198.055 115.346 -5.55112e-17
454 1 50.7937 101.135 -5.55112e-17
455 2 118.25 206.583 -5.55112e-17
456 1 174.321 213.7 -5.55112e-17
457 2 208.213 110.167 -5.55112e-17
458 2 97.6708 143.934 -5.55112e-17
459 2 214.462 82.1952 -5.55112e-17
460 1 65.8247 78.1063 -5.55112e-17
461 1 91.1541 139.083 -5.55112e-17
462 1 121.927 59.6132 -5.55112e-17
463 2 128.712 18.0793 -5.55112e-17
464 2 8.01593 95.6588 -5.55112e-17
465 1 49.8354 79.5471 -5.55112e-17
466 2 29.4228 61.1975 -5.55112e-17
467 2 187.849 32.3154 -5.55112e-17
468 2 154.535 215.89 -5.55112e-17
469 2 120.438 216.764 -5.55112e-17
470 2 5.53949 168.107 -5.55112e-17
471 2 128.016 182.408 -5.55112e-17
472 2 176.333 173.052 -5.55112e-17
473 2 212.481 103.241 -5.55112e-17
474 2 9.34455 75.2633 -5.55112e-17
475 1 182.267 100.663 -5.55112e-17
476 2 191.434 208.573 -5.55112e-17
477 1 169.435 185.313 -5.55112e-17
478 1 83.2583 60.7782 -5.55112e-17
479 2 87.5218 31.9149 -5.55112e-17
480 1 26.4137 215.205 -5.55112e-17
481 1 162.865 9.30345 -5.55112e-17
482 2 125.857 204.713 -5.55112e-17
483 1 9.72534 186.53 -5.55112e-17
484 1 61.2829 9.63838 -5.55112e-17
485 2 179.053 199.296 -5.55112e-17
486 1 98.3231 184.931 -5.55112e-17
487 1 151.937 15.5963 -5.55112e-17
488 1 34.3309 116.626 -5.55112e-17
489 1 164.257 96.7844 -5.55112e-17
490 1 78.622 163.671 -5.55112e-17
491 1 197.113 73.3402 -5.55112e-17
492 2 83.4705 207.007 -5.55112e-17
493 1 93.9152 147.089 -5.55112e-17
494 2 182.215 113.03 -5.55112e-17
495 1 119.383 24.9109 -5.55112e-17
496 1 190.805 55.489 -5.55112e-17
497 1 167.269 198.581 -5.55112e-17
498 2 29.2684 84.3635 -5.55112e-17
499 2 199.036 75.995 -5.55112e-17
500 2 166.632 134.19 -5.55112e-17
501 2 153.805 65.3348 -5.55112e-17
502 2 151.89 25.5633 -5.55112e-17
503 2 70.5544 163.275 -5.55112e-17
504 2 43.0999 154.455 -5.55112e-17
505 2 110.176 83.9713 -5.55112e-17
506 1 151.811 28.0984 -5.55112e-17
507 2 2.83359 34.4935 -5.55112e-17
508 1 185.694 150.548 -5.55112e-17
509 1 191.856 5.28977 -5.55112e-17
510 1 51.9801 120.877 -5.55112e-17
511 2 18.9533 93.4744 -5.55112e-17
512 1 19.8812 86.4629 -5.55112e-17
513 2 16.4496 59.4897 -5.55112e-17
514 2 9.60971 135.137 -5.55112e-17
515 1 62.4605 138.252 -5.55112e-17
516 2 44.9474 167.345 -5.55112e-17
517 1 215.825 80.0207 -5.55112e-17
518 2 128.339 127.565 -5.55112e-17
519 1 23.7856 109.407 -5.55112e-17
520 2 101.558 65.8585 -5.55112e-17
521 2 198.161 178.796 -5.55112e-17
522 1 98.7095 6.87806 -5.55112e-17
523 1 74.5337 137.833 -5.55112e-17
524 2 124.743 14.273 -5.55112e-17
525 2 23.416 92.4192 -5.55112e-17
526 2 70.2662 13.3222 -5.55112e-17
527 1 88.0747 71.2201 -5.55112e-17
528 1 17.5817 130.106 -5.55112e-17
529 2 198.064 58.8525 -5.55112e-17
530 2 117.155 79.55 -5.55112e-17
531 2 16.6159 135.141 -5.55112e-17
532 1 148.725 38.4197 -5.55112e-17
533 2 150.854 137.367 -5.55112e-17
534 1 109.684 50.8278 -5.55112e-17
535 1 98.1178 117.943 -5.55112e-17
536 2 204.309 168.821 -5.55112e-17
537 1 15.8577 19.8119 -5.55112e-17
538 1 76.4596 45.9426 -5.55112e-17
539 2 187.987 173.954 -5.55112e-17
540 1 47.6284 140.717 -5.55112e-17
541 1 94.144 165.191 -5.55112e-17
542 1 156.909 126.223 -5.55112e-17
543 2 210.159 115.912 -5.55112e-17
544 1 152.003 178.622 -5.55112e-17
545 1 72.1159 136.834 -5.55112e-17
546 2 75.3133 203.692 -5.55112e-17
547 1 201.627 168.867 -5.55112e-17
548 1 186.111 34.3555 -5.55112e-17
549 2 177.185 47.1943 -5.55112e-17
550 2 179.705 177.754 -5.55112e-17
551 2 60.0443 27.1138 -5.55112e-17
552 1 46.9126 58.6568 -5.55112e-17
553 2 192.559 88.9949 -5.55112e-17
554 2 51.9068 5.85858 -5.55112e-17
555 2 92.1495 54.6828 -5.55112e-17
556 1 175.567 129.82 -5.55112e-17
557 1 125.788 34.7534 -5.55112e-17
558 1 39.6373 127.596 -5.55112e-17
559 2 78.5692 40.868 -5.55112e-17
560 2 177.473 139.473 -5.55112e-17
561 2 140.538 202.175 -5.55112e-17
562 2 94.8053 199.603 -5.55112e-17
563 1 111.932 201.605 -5.55112e-17
564 2 22.8784 164.05 -5.55112e-17
565 2 142.235 33.2859 -5.55112e-17
566 2 45.0562 178.03 -5.55112e-17
567 1 145.347 90.2864 -5.55112e-17
568 1 72.2898 139.254 -5.55112e-17
569 2 106.885 50.5317 -5.55112e-17
570 2 123.19 140.753 -5.55112e-17
571 2 60.3068 174.792 -5.55112e-17
572 1 114.043 106.149 -5.55112e-17
573 2 82.3338 130.612 -5.55112e-17
574 2 20.5339 159.534 -5.55112e-17
575 1 136.494 55.6577 -5.55112e-17
576 1 59.6238 31.9313 -5.55112e-17
577 1 30.8653 70.7725 -5.55112e-17
578 1 124.412 85.4351 -5.55112e-17
579 2 128.322 26.4151 -5.55112e-17
580 1 79.3786 5.09518 -5.55112e-17
581 1 131.509 63.5586 -5.55112e-17
582 2 109.081 74.6435 -5.55112e-17
583 2 72.5093 178.964 -5.55112e-17
584 2 144.066 15.8895 -5.55112e-17
585 1 40.8136 98.6273 -5.55112e-17
586 1 91.3408 151.402 -5.55112e-17
587 1 87.1764 17.3146 -5.55112e-17
588 2 60.6312 79.6264 -5.55112e-17
589 1 16.6933 8.91011 -5.55112e-17
590 2 181.844 91.2116 -5.55112e-17
591 2 106.379 54.5804 -5.55112e-17
592 1 26.4897 73.6439 -5.55112e-17
593 1 189.456 14.2251 -5.55112e-17
594 1 8.75719 78.0648 -5.55112e-17
595 1 190.445 180.034 -5.55112e-17
596 2 64.4366 5.68187 -5.55112e-17
597 2 118.999 103.399 -5.55112e-17
598 2 42.5319 147.127 -5.55112e-17
599 2 105.689 118.328 -5.55112e-17
600 2 71.9418 184.673 -5.55112e-17
601 1 1.43825 48.0649 -5.55112e-17
602 1 122.567 84.0633 -5.55112e-17
603 2 33.0895 11.0393 -5.55112e-17
604 1 37.8534 62.2753 -5.55112e-17
605 2 146.604 74.0305 -5.55112e-17
606 2 160.694 71.1513 -5.55112e-17
607 2 11.6832 24.7198 -5.55112e-17
608 2 56.449 134.044 -5.55112e-17
609 1 35.8233 143.576 -5.55112e-17
610 2 148.435 41.3694 -5.55112e-17
611 1 135.307 66.8794 -5.55112e-17
612 1 133.247 48.8134 -5.55112e-17
613 2 122.47 193.482 -5.55112e-17
614 1 215.19 97.3659 -5.55112e-17
615 1 80.783 108.646 -5.55112e-17
616 2 181.739 70.1668 -5.55112e-17
617 1 163.117 136.54 -5.55112e-17
618 1 186.542 10.8041 -5.55112e-17
619 1 130.629 83.1665 -5.55112e-17
620 2 113.016 89.5329 -5.55112e-17
621 2 206.374 128.276 -5.55112e-17
622 2 194.506 34.8672 -5.55112e-17
623 2 55.0319 78.0413 -5.55112e-17
624 1 166.973 11.701 -5.55112e-17
625 2 150.606 79.0654 -5.55112e-17
626 1 13.6942 174.042 -5.55112e-17
627 2 194.898 111.494 -5.55112e-17
628 1 126.472 150.343 -5.55112e-17
629 1 61.2458 177.191 -5.55112e-17
630 2 152.801 135.017 -5.55112e-17
631 2 50.4994 155.597 -5.55112e-17
632 2 138.299 207.061 -5.55112e-17
633 2 165.773 94.5975 -5.55112e-17
634 2 199.67 163.4 -5.55112e-17
635 2 176.76 90.9828 -5.55112e-17
636 1 62.6917 74.6467 -5.55112e-17
637 1 147.59 61.9048 -5.55112e-17
638 1 86.6052 66.979 -5.55112e-17
639 2 160.745 19.0944 -5.55112e-17
640 2 139.396 5.07404 -5.55112e-17
641 1 131.905 1.85427 -5.55112e-17
642 2 29.3016 2.71672 -5.55112e-17
643 1 217.061 173.743 -5.55112e-17
644 2 37.9636 5.10832 -5.55112e-17
645 2 129.352 43.1085 -5.55112e-17
646 1 15.4809 40.6105 -5.55112e-17
647 2 84.0009 79.0861 -5.55112e-17
648 2 153.435 78.6276 -5.55112e-17
649 1 209.871 54.2738 -5.55112e-17
650 1 60.7532 85.3607 -5.55112e-17
651 1 138.954 41.2832 -5.55112e-17
652 2 7.86995 203.43 -5.55112e-17
653 2 215.845 45.4185 -5.55112e-17
654 1 200.687 117.721 -5.55112e-17
655 1 217.735 5.18064 -5.55112e-17
656 1 96.6671 88.1694 -5.55112e-17
657 1 179.549 14.0462 -5.55112e-17
658 2 203.908 3.74717 -5.55112e-17
659 2 213.454 66.0911 -5.55112e-17
660 1 64.6434 211.994 -5.55112e-17
661 2 84.4617 158.01 -5.55112e-17
662 2 2.83305 209.674 -5.55112e-17
663 1 5.59962 93.5738 -5.55112e-17
664 1 148.506 18.9218 -5.55112e-17
665 1 47.5064 6.10851 -5.55112e-17
666 1 197.361 88.4505 -5.55112e-17
667 1 96.4902 112.862 -5.55112e-17
668 1 211.502 8.088 -5.55112e-17
669 1 105.089 201.596 -5.55112e-17
670 2 79.0479 130.832 -5.55112e-17
671 1 85.7456 143.2 -5.55112e-17
672 1 34.5231 105.588 -5.55112e-17
673 2 102.618 207.081 -5.55112e-17
674 2 2.5297 104.113 -5.55112e-17
675 2 195.663 42.0558 -5.55112e-17
676 1 84.7659 1.30291 -5.55112e-17
677 2 148.14 200.995 -5.55112e-17
678 1 190.075 165.224 -5.55112e-17
679 1 157.461 84.4656 -5.55112e-17
680 2 192.909 152.256 -5.55112e-17
681 1 87.4561 153.778 -5.55112e-17
682 1 150.232 121.514 -5.55112e-17
683 2 17.5612 210.511 -5.55112e-17
684 1 202.513 103.276 -5.55112e-17
685 1 172.36 75.8702 -5.55112e-17
686 1 35.7193 91.2195 -5.55112e-17
687 1 73.0544 201.598 -5.55112e-17
688 1 208.042 58.2303 -5.55112e-17
689 2 170.303 163.422 -5.55112e-17
690 1 73.7217 78.512 -5.55112e-17
691 2 117.605 182.178 -5.55112e-17
692 2 21.765 0.699212 -5.55112e-17
693 1 163.389 154.259 -5.55112e-17
694 2 32.9621 34.7439 -5.55112e-17
695 2 2.73635 218.255 -5.55112e-17
696 2 88.684 62.1297 -5.55112e-17
697 1 10.5152 22.3486 -5.55112e-17
698 2 134.53 196.306 -5.55112e-17
699 1 119.928 41.2219 -5.55112e-17
700 2 77.427 138.394 -5.55112e-17
701 2 51.1604 182.658 -5.55112e-17
702 1 99.6613 139.377 -5.55112e-17
703 1 103.171 117.095 -5.55112e-17
704 1 134.534 31.5009 -5.55112e-17
705 1 139.165 84.8204 -5.55112e-17
706 1 23.957 43.3866 -5.55112e-17
707 1 167.03 75.4884 -5.55112e-17
708 2 71.048 125.668 -5.55112e-17
709 1 151.327 205.249 -5.55112e-17
710 2 163.665 134.098 -5.55112e-17
711 2 132.85 82.2861 -5.55112e-17
712 1 139.339 118.147 -5.55112e-17
713 1 194.41 79.8419 -5.55112e-17
714 2 63.7283 20.4856 -5.55112e-17
715 2 31.3339 127.547 -5.55112e-17
716 1 47.5163 199.501 -5.55112e-17
717 1 117.851 44.6067 -5.55112e-17
718 2 41.3593 157.064 -5.55112e-17
719 1 215.152 122.047 -5.55112e-17
720 2 162.289 47.5356 -5.55112e-17
721 2 176.713 122.023 -5.55112e-17
722 2 218.852 133.905 -5.55112e-17
723 2 22.795 188.303 -5.55112e-17
724 2 103.259 41.9927 -5.55112e-17
725 2 201.61 184.697 -5.55112e-17
726 2 88.4767 87.0306 -5.55112e-17
727 2 123.438 75.8064 -5.55112e-17
728 1 105.011 16.76 -5.55112e-17
729 2 13.7656 46.035 -5.55112e-17
730 2 171.353 63.9979 -5.55112e-17
731 1 27.8884 55.8152 -5.55112e-17
732 2 197.652 181.56 -5.55112e-17
733 2 201.821 105.606 -5.55112e-17
734 2 163.204 128.843 -5.55112e-17
735 2 193.958 148.459 -5.55112e-17
736 1 79.548 147.794 -5.55112e-17
737 2 50.1484 192.143 -5.55112e-17
738 2 115.749 94.6278 -5.55112e-17
739 2 10.7996 117.932 -5.55112e-17
740 2 76.3496 12.2616 -5.55112e-17
741 2 125.685 77.7886 -5.55112e-17
742 1 45.1711 124.214 -5.55112e-17
743 2 179.303 137.023 -5.55112e-17
744 1 55.6479 198.52 -5.55112e-17
745 2 180.187 23.126 -5.55112e-17
746 1 212.362 27.5211 -5.55112e-17
747 1 164.544 33.8544 -5.55112e-17
748 2 196.003 65.8778 -5.55112e-17
749 1 71.6451 103.52 -5.55112e-17
750 1 87.031 54.939 -5.55112e-17
751 1 124.864 175.752 -5.55112e-17
752 2 155.85 203.429 -5.55112e-17
753 1 63.8972 65.3152 -5.55112e-17
754 2 72.3402 174.975 -5.55112e-17
755 1 89.6795 194.983 -5.55112e-17
756 2 120.902 196.345 -5.55112e-17
757 1 63.5119 170.747 -5.55112e-17
758 2 30.1093 167.536 -5.55112e-17
759 1 205.131 10.8302 -5.55112e-17
760 1 52.5854 150.055 -5.55112e-17
761 2 187.361 161.036 -5.55112e-17
762 1 14.9686 164.705 -5.55112e-17
763 2 86.6031 81.0888 -5.55112e-17
764 2 101.122 25.1758 -5.55112e-17
765 1 205.171 133.527 -5.55112e-17
766 2 172.157 178.699 -5.55112e-17
767 2 186.541 192.639 -5.55112e-17
768 2 115.892 120.864 -5.55112e-17
769 2 22.7309 104.344 -5.55112e-17
770 1 65.4379 207.774 -5.55112e-17
771 1 2.92287 89.7762 -5.55112e-17
772 1 163.813 139.542 -5.55112e-17
773 2 21.1211 143.172 -5.55112e-17
774 1 70.376 206.376 -5.55112e-17
775 1 141.806 93.7065 -5.55112e-17
776 2 117.397 157.693 -5.55112e-17
777 2 100.387 149.205 -5.55112e-17
778 1 5.20191 46.1046 -5.55112e-17
779 1 12.8789 152.67 -5.55112e-17
780 2 9.8071 104.995 -5.55112e-17
781 1 104.78 33.1663 -5.55112e-17
782 2 171.751 47.1516 -5.55112e-17
783 1 201.752 80.3599 -5.55112e-17
784 2 140.606 198.612 -5.55112e-17
785 1 137.727 28.3498 -5.55112e-17
786 1 12.339 171.97 -5.55112e-17
787 2 48.7311 138.585 -5.55112e-17
788 2 126.95 11.7599 -5.55112e-17
789 2 213.671 120.278 -5.55112e-17
790 2 182.516 85.5235 -5.55112e-17
791 2 16.1011 193.8 -5.55112e-17
792 1 126.79 84.6525 -5.55112e-17
793 1 20.595 129.37 -5.55112e-17
794 2 3.5073 159.147 -5.55112e-17
795 2 97.3013 208.234 -5.55112e-17
796 1 212.107 76.4291 -5.55112e-17
797 1 86.4227 69.5197 -5.55112e-17
798 1 165.341 191.277 -5.55112e-17
799 2 32.0877 28.6455 -5.55112e-17
800 1 64.6989 180.581 -5.55112e-17
801 2 194.637 205.408 -5.55112e-17
802 1 39.1714 214.143 -5.55112e-17
803 1 112.421 3.59453 -5.55112e-17
804 1 70.8435 92.933 -5.55112e-17
805 2 131.578 162.591 -5.55112e-17
806 2 188.251 197.631 -5.55112e-17
807 2 19.1471 147.488 -5.55112e-17
808 2 5.26369 207.947 -5.55112e-17
809 1 43.4493 88.9357 -5.55112e-17
810 2 153.784 152.371 -5.55112e-17
811 2 189.071 170.91 -5.55112e-17
812 1 62.1006 7.44894 -5.55112e-17
813 1 119.924 84.9746 -5.55112e-17
814 1 129.051 58.2176 -5.55112e-17
815 1 127.549 38.6888 -5.55112e-17
816 1 216.278 208.359 -5.55112e-17
817 2 68.9145 198.805 -5.55112e-17
818 2 213.037 22.4954 -5.55112e-17
819 2 178.087 110.002 -5.55112e-17
820 1 148.98 162.049 -5.55112e-17
821 1 49.591 45.8371 -5.55112e-17
822 2 190.715 49.0947 -5.55112e-17
823 1 41.1828 128.976 -5.55112e-17
824 1 196.68 36.5459 -5.55112e-17
825 1 153.507 41.1281 -5.55112e-17
826 2 49.2915 37.8867 -5.55112e-17
827 2 186.167 213.755 -5.55112e-17
828 1 178.517 58.947 -5.55112e-17
829 2 202.725 51.1179 -5.55112e-17
830 1 23.4893 70.8137 -5.55112e-17
831 2 63.597 2.74011 -5.55112e-17
832 2 100.177 19.7815 -5.55112e-17
833 2 20.7198 205.842 -5.55112e-17
834 1 35.1725 49.3874 -5.55112e-17
835 1 167.575 69.0115 -5.55112e-17
836 1 178.102 124.088 -5.55112e-17
837 2 9.59336 110.077 -5.55112e-17
838 2 96.8096 128.168 -5.55112e-17
839 1 214.927 102.079 -5.55112e-17
840 2 191.808 39.8643 -5.55112e-17
841 2 16.7773 179.275 -5.55112e-17
842 1 49.0358 113.846 -5.55112e-17
843 1 165.328 26.3214 -5.55112e-17
844 2 13.3509 63.6032 -5.55112e-17
845 1 96.1257 196.666 -5.55112e-17
846 2 121.829 70.6397 -5.55112e-17
847 1 90.3837 158.388 -5.55112e-17
848 2 0.524546 69.2606 -5.55112e-17
849 1 127.911 6.93855 -5.55112e-17
850 2 48.3147 177.433 -5.55112e-17
851 2 160.489 8.71223 -5.55112e-17
852 1 7.83279 42.4516 -5.55112e-17
853 1 4.72951 133.282 -5.55112e-17
854 2 99.5041 177.581 -5.55112e-17
855 2 78.2714 76.2256 -5.55112e-17
856 1 137.775 139.832 -5.55112e-17