ITEM: TIMESTEP
0
ITEM: NUMBER OF ATOMS
7200
ITEM: BOX BOUNDS xy xz yz pp pp pp
0.0000000000000000e+00 2.1900000000000000e+02 0.0000000000000000e+00
0.0000000000000000e+00 2.1900000000000000e+02 0.0000000000000000e+00
-3.6499999999999999e-01 3.6499999999999999e-01 0.0000000000000000e+00
ITEM: ATOMS id type x y z
1 1 75.2568 23.4254 -5.55112e-17
2 2 95.4229 200.777 -5.55112e-17
3 2 113.309 108.339 -5.55112e-17
4 1 127.719 27.4857 -5.55112e-17
5 1 156.001 89.3569 -5.55112e-17
6 1 120.737 179.798 -5.55112e-17
7 2 26.1757 146.53 -5.55112e-17
8 2 206.83 213.292 -5.55112e-17
9 1 89.2416 110.454 -5.55112e-17
10 2 79.6975 31.9718 -5.55112e-17
11 2 211.631 160.945 -5.55112e-17
12 1 123.184 109.885 -5.55112e-17
13 2 48.5601 121.712 -5.55112e-17
14 1 48.6865 189.372 -5.55112e-17
15 2 132.908 216.316 -5.55112e-17
16 2 6.68961 208.401 -5.55112e-17
17 1 217.399 203.36 -5.55112e-17
18 2 55.1366 13.3255 -5.55112e-17
19 1 110.516 2.00413 -5.55112e-17
20 1 3.66458 204.371 -5.55112e-17
21 1 80.3139 160.353 -5.55112e-17
22 2 77.8717 215.583 -5.55112e-17
23 2 194.702 53.3839 -5.55112e-17
24 2 158.119 17.218 -5.55112e-17
25 2 163.569 167.69 -5.55112e-17
26 2 151.312 2.52155 -5.55112e-17
27 1 150.427 112.111 -5.55112e-17
28 2 75.8676 191.267 -5.55112e-17
29 2 205.119 217.992 -5.55112e-17
30 2 152.667 123.121 -5.55112e-17
31 2 126.622 82.2978 -5.55112e-17
32 1 39.7743 89.3031 -5.55112e-17
33 2 151.523 133.342 -5.55112e-17
34 2 29.4388 215.45 -5.55112e-17
35 2 192.552 111.603 -5.55112e-17
36 1 48.5831 155.468 -5.55112e-17
37 1 199.71 6.04964 -5.55112e-17
38 2 131.437 52.2672 -5.55112e-17
39 1 69.8916 175.173 -5.55112e-17
40 2 17.1697 119.674 -5.55112e-17
41 1 170.054 81.1684 -5.55112e-17
42 1 122.735 60.1655 -5.55112e-17
43 1 20.4077 74.0543 -5.55112e-17
44 1 107.738 142.409 -5.55112e-17
45 2 37.9003 50.3149 -5.55112e-17
46 1 35.4036 179.389 -5.55112e-17
47 2 18.9193 172.608 -5.55112e-17
48 2 85.188 108.459 -5.55112e-17
49 1 114.316 49.489 -5.55112e-17
50 2 91.0173 79.8033 -5.55112e-17
51 1 6.00681 100.126 -5.55112e-17
52 1 191.924 147.579 -5.55112e-17
53 2 64.6454 25.932 -5.55112e-17
54 1 127.27 5.95093 -5.55112e-17
55 2 163.582 158.447 -5.55112e-17
56 1 168.162 96.6348 -5.55112e-17
57 2 115.784 119.199 -5.55112e-17
58 1 143.007 206.225 -5.55112e-17
59 1 27.1267 176.948 -5.55112e-17
60 2 23.9618 52.1083 -5.55112e-17
61 1 27.925 150.963 -5.55112e-17
62 1 134.063 124.935 -5.55112e-17
63 2 59.1901 195.385 -5.55112e-17
64 1 172.604 185.047 -5.55112e-17
65 2 83.3197 5.28124 -5.55112e-17
66 2 163.645 190.498 -5.55112e-17
67 2 90.3463 87.6201 -5.55112e-17
68 1 169.805 85.2893 -5.55112e-17
69 2 99.2491 39.2366 -5.55112e-17
70 1 212.907 50.7553 -5.55112e-17
71 1 82.2391 22.4212 -5.55112e-17
72 2 64.5212 199.096 -5.55112e-17
73 2 44.51 125.197 -5.55112e-17
74 2 196.4 203.226 -5.55112e-17
75 1 217.024 33.6278 -5.55112e-17
76 2 54.9416 97.7259 -5.55112e-17
77 2 138.693 122.794 -5.55112e-17
78 1 200.379 118.084 -5.55112e-17
79 2 206.744 29.3945 -5.55112e-17
80 1 29.724 88.8494 -5.55112e-17
81 1 97.0834 117.207 -5.55112e-17
82 1 112.201 76.5987 -5.55112e-17
83 1 155.532 60.4755 -5.55112e-17
84 2 115.445 112.932 -5.55112e-17
85 2 195.871 159.147 -5.55112e-17
86 2 11.2731 70.709 -5.55112e-17
87 2 134.708 10.5592 -5.55112e-17
88 1 10.1487 10.5049 -5.55112e-17
89 2 123.658 189.378 -5.55112e-17
90 2 200.939 77.0829 -5.55112e-17
91 2 78.6526 213.012 -5.55112e-17
92 1 88.1551 112.765 -5.55112e-17
93 2 106.154 188.258 -5.55112e-17
94 2 211.984 91.8665 -5.55112e-17
95 1 101.125 69.75 -5.55112e-17
96 2 48.0677 37.147 -5.55112e-17
97 2 0.617475 181.947 -5.55112e-17
98 2 171.528 90.1179 -5.55112e-17
99 1 38.2834 24.2783 -5.55112e-17
100 2 138.213 80.4145 -5.55112e-17
101 1 190.654 3.06831 -5.55112e-17
102 1 181.489 208.684 -5.55112e-17
103 2 111.422 181.119 -5.55112e-17
104 2 37.0482 133.033 -5.55112e-17
105 1 199.285 124.94 -5.55112e-17
106 1 38.4051 182.882 -5.55112e-17
107 1 125.713 190.92 -5.55112e-17
108 1 73.8141 110.903 -5.55112e-17
109 2 95.992 137.633 -5.55112e-17
110 2 109.369 21.042 -5.55112e-17
111 1 146.082 217.417 -5.55112e-17
112 2 178.762 81.1723 -5.55112e-17
113 1 142.711 44.5571 -5.55112e-17
114 1 1.76368 22.2505 -5.55112e-17
115 2 28.9286 20.7127 -5.55112e-17
116 2 124.333 84.2689 -5.55112e-17
117 1 16.4441 40.9946 -5.55112e-17
118 1 129.559 1.60259 -5.55112e-17
119 2 51.7962 165.458 -5.55112e-17
120 2 79.407 132.629 -5.55112e-17
121 1 150.516 138.472 -5.55112e-17
122 2 165.182 155.963 -5.55112e-17
123 2 7.63216 122.18 -5.55112e-17
124 1 133.811 22.2451 -5.55112e-17
125 1 64.9174 108.57 -5.55112e-17
126 2 171.295 200.897 -5.55112e-17
127 2 115.93 53.6192 -5.55112e-17
128 1 139.774 154.447 -5.55112e-17
129 1 50.1643 53.9616 -5.55112e-17
130 2 110.164 149.36 -5.55112e-17
131 1 83.2901 71.8266 -5.55112e-17
132 1 128.448 21.6644 -5.55112e-17
133 1 43.5068 81.352 -5.55112e-17
134 1 67.888 115.522 -5.55112e-17
135 2 191.414 201.188 -5.55112e-17
136 1 120.014 138.724 -5.55112e-17
137 1 86.7413 78.0439 -5.55112e-17
138 2 189.425 70.6515 -5.55112e-17
139 1 54.4663 18.7326 -5.55112e-17
140 1 12.6525 1.5788 -5.55112e-17
141 1 200.187 96.2908 -5.55112e-17
142 1 34.6558 58.4324 -5.55112e-17
143 1 18.3141 132.916 -5.55112e-17
144 1 71.2622 104.483 -5.55112e-17
145 2 168.383 123.51 -5.55112e-17
146 1 143.896 182.837 -5.55112e-17
147 2 59.072 170.258 -5.55112e-17
148 1 41.7305 195.395 -5.55112e-17
149 1 138.061 42.3276 -5.55112e-17
150 2 66.6273 205.292 -5.55112e-17
151 1 63.103 30.1005 -5.55112e-17
152 1 54.3075 119.541 -5.55112e-17
153 2 126.769 138.802 -5.55112e-17
154 1 16.9282 203.599 -5.55112e-17
155 2 156.222 70.2855 -5.55112e-17
156 2 61.3805 8.91886 -5.55112e-17
157 2 47.0833 28.4142 -5.55112e-17
158 2 62.2957 184.355 -5.55112e-17
159 2 94.4468 217.35 -5.55112e-17
160 2 216.111 27.7679 -5.55112e-17
161 2 182.342 44.9557 -5.55112e-17
162 1 156.549 87.2954 -5.55112e-17
163 1 140.178 24.061 -5.55112e-17
164 2 118.006 60.9662 -5.55112e-17
165 1 65.0679 112.953 -5.55112e-17
166 2 156.988 14.2779 -5.55112e-17
167 1 211.891 36.0547 -5.55112e-17
168 1 179.851 12.5272 -5.55112e-17
169 2 108.733 49.1069 -5.55112e-17
170 1 68.3686 158.281 -5.55112e-17
171 1 18.2747 122.185 -5.55112e-17
172 1 19.3964 16.7554 -5.55112e-17
173 1 115.672 51.0344 -5.55112e-17
174 2 32.2132 104.304 -5.55112e-17
175 2 102.992 43.6406 -5.55112e-17
176 1 204.69 114.638 -5.55112e-17
177 2 211.441 10.0215 -5.55112e-17
178 1 25.6808 170.593 -5.55112e-17
179 2 155.316 142.92 -5.55112e-17
180 1 69.6666 98.0858 -5.55112e-17
181 1 112.848 206.99 -5.55112e-17
182 1 120.73 114.51 -5.55112e-17
183 1 133.468 35.695 -5.55112e-17
184 2 165.559 176.742 -5.55112e-17
185 2 56.7002 157.798 -5.55112e-17
186 2 29.0926 62.1219 -5.55112e-17
187 2 66.8042 163.672 -5.55112e-17
188 2 178.379 217.909 -5.55112e-17
189 1 81.229 65.639 -5.55112e-17
190 1 83.8724 44.9294 -5.55112e-17
191 2 192.443 16.645 -5.55112e-17
192 2 174.406 213.069 -5.55112e-17
193 1 108.405 147.686 -5.55112e-17
194 1 119.223 92.9761 -5.55112e-17
195 2 7.18023 198.864 -5.55112e-17
196 1 181.829 39.0049 -5.55112e-17
197 2 52.4878 110.528 -5.55112e-17
198 2 210.284 48.6426 -5.55112e-17
199 2 54.7297 183.452 -5.55112e-17
200 2 186.532 125.555 -5.55112e-17
201 2 214.353 35.0905 -5.55112e-17
202 1 104.544 129.49 -5.55112e-17
203 1 193.719 107.327 -5.55112e-17
204 2 213.134 110.339 -5.55112e-17
205 2 214.847 159.799 -5.55112e-17
206 2 217.428 187.434 -5.55112e-17
207 1 124.683 211.165 -5.55112e-17
208 2 182.563 152.833 -5.55112e-17
209 2 38.7633 96.9492 -5.55112e-17
210 1 176.28 117.364 -5.55112e-17
211 1 80.1094 113.6 -5.55112e-17
212 1 114.619 193.154 -5.55112e-17
213 1 129.572 129.322 -5.55112e-17
214 2 68.3255 100.499 -5.55112e-17
215 1 55.2056 94.7183 -5.55112e-17
216 1 154.876 56.8588 -5.55112e-17
217 1 129.174 102.072 -5.55112e-17
218 2 118.146 51.2105 -5.55112e-17
219 2 34.3365 29.1873 -5.55112e-17
220 1 128.342 217.666 -5.55112e-17
221 2 199.448 183.434 -5.55112e-17
222 1 36.0873 143.734 -5.55112e-17
223 1 125.651 96.0561 -5.55112e-17
224 2 173.554 205.615 -5.55112e-17
225 2 195.727 163.483 -5.55112e-17
226 1 173.597 183.239 -5.55112e-17
227 2 217.895 128.593 -5.55112e-17
228 2 193.195 95.2064 -5.55112e-17
229 1 34.4691 132.445 -5.55112e-17
230 1 191.022 137.278 -5.55112e-17
231 2 78.6577 50.923 -5.55112e-17
232 1 73.1617 154.916 -5.55112e-17
233 2 89.5256 23.208 -5.55112e-17
234 1 30.235 56.8235 -5.55112e-17
235 1 136.526 180.051 -5.55112e-17
236 2 21.6428 65.7513 -5.55112e-17
237 2 169.149 4.02741 -5.55112e-17
238 2 92.3962 29.8081 -5.55112e-17
239 1 186.764 29.845 -5.55112e-17
240 1 27.056 74.9482 -5.55112e-17
241 2 191.798 79.7877 -5.55112e-17
242 1 147.455 168.256 -5.55112e-17
243 2 29.2793 218.243 -5.55112e-17
244 2 175.115 61.3588 -5.55112e-17
245 1 143.46 147.743 -5.55112e-17
246 2 42.1086 90.3155 -5.55112e-17
247 2 159.543 121.651 -5.55112e-17
248 1 169.918 36.095 -5.55112e-17
249 1 198.502 201.843 -5.55112e-17
250 1 111.566 126.817 -5.55112e-17
251 2 130.081 165.699 -5.55112e-17
252 1 119.961 208.826 -5.55112e-17
253 2 186.697 92.6863 -5.55112e-17
254 2 180.438 105.136 -5.55112e-17
255 2 131.296 213.884 -5.55112e-17
256 1 128.092 167.956 -5.55112e-17
257 2 112.7 29.5469 -5.55112e-17
258 1 81.4611 83.6737 -5.55112e-17
259 2 55.6191 42.4008 -5.55112e-17
260 1 54.7035 72.9585 -5.55112e-17
261 2 160.85 2.54933 -5.55112e-17
262 2 142.051 19.4162 -5.55112e-17
263 2 195.403 182.661 -5.55112e-17
264 1 193.888 194.014 -5.55112e-17
265 1 195.272 16.2979 -5.55112e-17
266 1 132.191 134.601 -5.55112e-17
267 2 54.8069 7.95497 -5.55112e-17
268 1 57.1644 165.497 -5.55112e-17
269 2 59.7295 202.237 -5.55112e-17
270 2 24.5774 25.1036 -5.55112e-17
271 2 7.58679 132.831 -5.55112e-17
272 1 70.5429 192.737 -5.55112e-17
273 1 102.336 176.559 -5.55112e-17
274 1 54.7418 193.293 -5.55112e-17
275 1 194.418 79.5707 -5.55112e-17
276 1 119.467 86.751 -5.55112e-17
277 1 76.528 65.4883 -5.55112e-17
278 2 1.88883 44.0165 -5.55112e-17
279 2 215.872 112.065 -5.55112e-17
280 1 27.4479 37.3381 -5.55112e-17
281 2 140.894 110.941 -5.55112e-17
282 2 197.996 54.0882 -5.55112e-17
283 2 43.2415 43.2272 -5.55112e-17
284 1 145.5 141.516 -5.55112e-17
285 1 122.473 160.288 -5.55112e-17
286 2 73.065 162.033 -5.55112e-17
287 2 130.179 96.6847 -5.55112e-17
288 1 126.728 56.0978 -5.55112e-17
289 2 112.106 172.575 -5.55112e-17
290 1 34.4144 170.581 -5.55112e-17
291 2 198.522 129.831 -5.55112e-17
292 1 190.191 31.1026 -5.55112e-17
293 1 75.5809 56.0478 -5.55112e-17
294 1 13.6772 123.851 -5.55112e-17
295 2 58.8753 134.519 -5.55112e-17
296 1 135.916 103.162 -5.55112e-17
297 1 156.317 104.9 -5.55112e-17
298 2 5.2339 156.963 -5.55112e-17
299 1 22.7982 143.172 -5.55112e-17
300 2 172.345 138.248 -5.55112e-17
301 2 101.086 123.947 -5.55112e-17
302 2 176.785 127.559 -5.55112e-17
303 1 75.3302 170.334 -5.55112e-17
304 1 70.9349 100.151 -5.55112e-17
305 1 162.234 188.552 -5.55112e-17
306 2 195.156 207.935 -5.55112e-17
307 2 74.9853 152.747 -5.55112e-17
308 2 64.303 146.546 -5.55112e-17
309 1 63.3542 149.014 -5.55112e-17
310 1 157.979 26.7208 -5.55112e-17
311 1 161.06 143.875 -5.55112e-17
312 2 208.269 84.5536 -5.55112e-17
313 2 166.333 69.1121 -5.55112e-17
314 1 97.6156 72.6132 -5.55112e-17
315 2 64.7176 96.3576 -5.55112e-17
316 1 117.822 24.0833 -5.55112e-17
317 1 93.7371 181.791 -5.55112e-17
318 1 134.328 141.567 -5.55112e-17
319 2 22.9444 151.402 -5.55112e-17
320 1 178.528 197.04 -5.55112e-17
321 1 150.607 109.76 -5.55112e-17
322 1 44.1364 204.067 -5.55112e-17
323 2 129.683 33.9407 -5.55112e-17
324 2 150.359 175.417 -5.55112e-17
325 2 75.0624 17.6803 -5.55112e-17
326 1 143.157 70.0156 -5.55112e-17
327 1 21.0223 68.1435 -5.55112e-17
328 2 140.311 196.681 -5.55112e-17
329 2 72.8129 175.47 -5.55112e-17
330 2 131.682 54.8935 -5.55112e-17
331 2 88.8453 72.8472 -5.55112e-17
332 2 25.5493 6.58089 -5.55112e-17
333 2 197.473 205.862 -5.55112e-17
334 2 28.9968 2.03159 -5.55112e-17
335 1 95.9918 54.8064 -5.55112e-17
336 2 121.842 65.8234 -5.55112e-17
337 2 82.3582 195.629 -5.55112e-17
338 1 181.94 102.422 -5.55112e-17
339 2 182.915 203.771 -5.55112e-17
340 2 29.2494 191.392 -5.55112e-17
341 2 165.703 106.89 -5.55112e-17
342 2 64.368 46.9272 -5.55112e-17
343 2 204.663 147.048 -5.55112e-17
344 1 45.1944 165.561 -5.55112e-17
345 2 70.527 89.1419 -5.55112e-17
346 2 71.4888 173.04 -5.55112e-17
347 1 169.161 22.2312 -5.55112e-17
348 1 187.791 183.767 -5.55112e-17
349 2 89.0089 10.5062 -5.55112e-17
350 2 188.111 205.208 -5.55112e-17
351 1 93.7505 64.7824 -5.55112e-17
352 1 125.357 31.4201 -5.55112e-17
353 2 204.769 103.35 -5.55112e-17
354 2 93.705 2.48064 -5.55112e-17
355 1 9.61593 149.415 -5.55112e-17
356 2 126.766 33.8819 -5.55112e-17
357 1 91.1184 60.3946 -5.55112e-17
358 1 205.985 136.429 -5.55112e-17
359 1 3.9906 176.443 -5.55112e-17
360 1 20.3999 113.19 -5.55112e-17
361 2 164.834 94.3924 -5.55112e-17
362 2 83.7959 131.947 -5.55112e-17
363 1 159.608 155.93 -5.55112e-17
364 2 84.7729 190.447 -5.55112e-17
365 1 211.746 132.822 -5.55112e-17
366 1 23.5564 59.8639 -5.55112e-17
367 1 192.947 163.503 -5.55112e-17
368 1 122.253 132.447 -5.55112e-17
369 2 134.701 79.4479 -5.55112e-17
370 1 197.687 176.98 -5.55112e-17
371 2 217.928 56.132 -5.55112e-17
372 1 174.751 10.4017 -5.55112e-17
373 2 125.789 22.1642 -5.55112e-17
374 2 50.5927 180.253 -5.55112e-17
375 1 160.712 86.6883 -5.55112e-17
376 1 122.554 31.3691 -5.55112e-17
377 2 198.822 147.37 -5.55112e-17
378 2 90.9105 152.321 -5.55112e-17
379 2 25.1483 100.055 -5.55112e-17
380 1 90.501 74.9392 -5.55112e-17
381 1 156.564 55.4659 -5.55112e-17
382 1 142.893 14.7962 -5.55112e-17
383 1 19.4662 204.338 -5.55112e-17
384 2 132.591 106.365 -5.55112e-17
385 1 39.7787 6.2717 -5.55112e-17
386 2 2.60568 65.6566 -5.55112e-17
387 1 153.836 59.0057 -5.55112e-17
388 1 87.8141 189.755 -5.55112e-17
389 2 11.6383 19.4848 -5.55112e-17
390 1 190.495 49.1183 -5.55112e-17
391 1 97.8731 44.1003 -5.55112e-17
392 2 76.4896 201.261 -5.55112e-17
393 2 121.016 124.649 -5.55112e-17
394 1 11.4609 173.662 -5.55112e-17
395 1 167.103 84.9808 -5.55112e-17
396 2 189.242 1.0553 -5.55112e-17
397 1 42.6938 107.335 -5.55112e-17
398 2 34.3354 204.587 -5.55112e-17
399 2 207.597 118.461 -5.55112e-17
400 2 161.797 103.329 -5.55112e-17
401 2 36.9441 203.799 -5.55112e-17
402 1 140.939 73.263 -5.55112e-17
403 1 145.03 198.711 -5.55112e-17
404 2 83.473 1.71108 -5.55112e-17
405 1 186.595 36.7371 -5.55112e-17
406 2 154.916 158.944 -5.55112e-17
407 1 145.365 37.9378 -5.55112e-17
408 1 89.7017 30.1996 -5.55112e-17
409 2 97.713 190.618 -5.55112e-17
410 2 49.2764 96.1476 -5.55112e-17
411 1 101.347 53.2594 -5.55112e-17
412 1 92.1412 27.4724 -5.55112e-17
413 1 131.746 101.229 -5.55112e-17
414 2 115.681 12.7555 -5.55112e-17
415 1 181.689 147.477 -5.55112e-17
416 1 149.303 36.0022 -5.55112e-17
417 2 52.2681 194.053 -5.55112e-17
418 2 176.616 83.7545 -5.55112e-17
419 2 39.2471 8.87776 -5.55112e-17
420 2 88.2184 148.78 -5.55112e-17
421 1 42.7677 182.517 -5.55112e-17
422 1 46.8255 132.118 -5.55112e-17
423 2 153.477 84.4627 -5.55112e-17
424 2 146.083 128.48 -5.55112e-17
425 2 53.7131 40.0969 -5.55112e-17
426 1 66.3607 157.437 -5.55112e-17
427 2 86.2684 140.49 -5.55112e-17
428 1 41.272 17.5137 -5.55112e-17
429 2 109.665 137.816 -5.55112e-17
430 2 82.1431 47.098 -5.55112e-17
431 1 167.767 169.317 -5.55112e-17
432 2 170.474 97.9705 -5.55112e-17
433 1 129.302 99.3173 -5.55112e-17
434 1 55.8073 105.628 -5.55112e-17
435 1 129.176 145.142 -5.55112e-17
436 2 95.409 43.0247 -5.55112e-17
437 2 203.796 180.943 -5.55112e-17
438 2 143.809 9.68529 -5.55112e-17
439 2 164.076 179.824 -5.55112e-17
440 2 91.5827 52.6894 -5.55112e-17
441 1 139.609 93.2738 -5.55112e-17
442 1 203.503 206.62 -5.55112e-17
443 2 26.7017 184.787 -5.55112e-17
444 1 91.3935 65.305 -5.55112e-17
445 1 196.819 36.6384 -5.55112e-17
446 2 34.3972 53.2527 -5.55112e-17
447 2 157.819 107.125 -5.55112e-17
448 2 205.676 86.8659 -5.55112e-17
449 1 168.123 203.469 -5.55112e-17
450 1 8.21535 85.0143 -5.55112e-17
451 1 66.5103 144.259 -5.55112e-17
452 2 156.358 121.408 -5.55112e-17
453 1 107.748 31.5743 -5.55112e-17
454 1 66.6256 216.932 -5.55112e-17
455 2 126.101 204.046 -5.55112e-17
456 1 91.3428 170.456 -5.55112e-17
457 2 29.5463 126.843 -5.55112e-17
458 2 73.0322 39.7434 -5.55112e-17
459 2 194.778 126.204 -5.55112e-17
460 1 115.231 28.2265 -5.55112e-17
461 1 95.7146 189.414 -5.55112e-17
462 1 139.191 10.2293 -5.55112e-17
463 2 88.2343 206.817 -5.55112e-17
464 2 45.0246 30.6774 -5.55112e-17
465 1 128.558 90.4995 -5.55112e-17
466 2 101.203 150.477 -5.55112e-17
467 2 137.052 190.948 -5.55112e-17
468 2 46.8795 19.19 -5.55112e-17
469 2 155.615 208.833 -5.55112e-17
470 2 77.3198 122.291 -5.55112e-17
471 2 214.535 102.369 -5.55112e-17
472 2 65.8546 122.944 -5.55112e-17
473 2 193.026 181.199 -5.55112e-17
474 2 30.945 129.595 -5.55112e-17
475 1 46.9875 214.842 -5.55112e-17
476 2 204.86 19.0869 -5.55112e-17
477 1 0.533858 123.745 -5.55112e-17
478 1 42.922 25.8973 -5.55112e-17
479 2 94.1867 174.248 -5.55112e-17
480 1 26.8136 190.645 -5.55112e-17
481 1 198.976 59.3614 -5.55112e-17
482 2 159.884 116.074 -5.55112e-17
483 1 67.6972 27.3356 -5.55112e-17
484 1 29.1816 155.589 -5.55112e-17
485 2 12.6007 61.4918 -5.55112e-17
486 1 149.718 189.375 -5.55112e-17
487 1 215.648 55.6719 -5.55112e-17
488 1 111.822 21.8292 -5.55112e-17
489 1 67.385 79.2747 -5.55112e-17
490 1 115.722 188.926 -5.55112e-17
491 1 60.6237 40.5822 -5.55112e-17
492 2 41.2665 186.724 -5.55112e-17
493 1 188.611 35.3622 -5.55112e-17
494 2 59.9991 45.3516 -5.55112e-17
495 1 1.89387 15.5255 -5.55112e-17
496 1 149.347 167.078 -5.55112e-17
497 1 133.489 47.5407 -5.55112e-17
498 2 76.4273 110.873 -5.55112e-17
499 2 180.369 100.177 -5.55112e-17
500 2 132.197 115.264 -5.55112e-17
501 2 27.8715 141.749 -5.55112e-17
502 2 202.531 68.0146 -5.55112e-17
503 2 170.77 116.644 -5.55112e-17
504 2 203.852 212.912 -5.55112e-17
505 2 25.9641 20.039 -5.55112e-17
506 1 203.021 58.8795 -5.55112e-17
507 2 1.89363 85.8745 -5.55112e-17
508 1 194.125 202.041 -5.55112e-17
509 1 45.3232 181.693 -5.55112e-17
510 1 87.6518 216.977 -5.55112e-17
511 2 183.073 60.4146 -5.55112e-17
512 1 107.231 129.492 -5.55112e-17
513 2 167.786 144.354 -5.55112e-17
514 2 86.4067 124.498 -5.55112e-17
515 1 76.9824 132.321 -5.55112e-17
516 2 119.356 64.0016 -5.55112e-17
517 1 146.224 5.57122 -5.55112e-17
518 2 123.094 11.8282 -5.55112e-17
519 1 112.46 122.403 -5.55112e-17
520 2 152.487 99.2655 -5.55112e-17
521 2 58.685 146.402 -5.55112e-17
522 1 201.39 11.932 -5.55112e-17
523 1 53.9062 144.89 -5.55112e-17
524 2 170.215 148.498 -5.55112e-17
525 2 195.144 38.7921 -5.55112e-17
526 2 4.60968 28.8377 -5.55112e-17
527 1 24.1712 33.0445 -5.55112e-17
528 1 66.9127 120.641 -5.55112e-17
529 2 161.705 137.06 -5.55112e-17
530 2 28.1557 90.877 -5.55112e-17
531 2 160.578 9.84854 -5.55112e-17
532 1 26.7963 216.719 -5.55112e-17
533 2 126.656 193.144 -5.55112e-17
534 1 61.4436 75.0988 -5.55112e-17
535 1 203.361 106.019 -5.55112e-17
536 2 27.1134 44.5294 -5.55112e-17
537 1 57.447 122.249 -5.55112e-17
538 1 13.6391 146.911 -5.55112e-17
539 2 138.365 74.5939 -5.55112e-17
540 1 171.592 172.846 -5.55112e-17
541 1 49.335 218.325 -5.55112e-17
542 1 84.9195 47.2157 -5.55112e-17
543 2 80.2206 37.2397 -5.55112e-17
544 1 27.9142 56.751 -5.55112e-17
545 1 168.775 83.3015 -5.55112e-17
546 2 174.836 36.9286 -5.55112e-17
547 1 170.35 151.023 -5.55112e-17
548 1 22.1718 75.9372 -5.55112e-17
549 2 201.632 79.9332 -5.55112e-17
550 2 215.007 22.1655 -5.55112e-17
551 2 128.001 114.848 -5.55112e-17
552 1 211.568 28.5752 -5.55112e-17
553 2 140.467 14.9395 -5.55112e-17
554 2 59.5455 158.127 -5.55112e-17
555 2 111.019 104.781 -5.55112e-17
556 1 26.7989 95.8652 -5.55112e-17
557 1 147.384 198.337 -5.55112e-17
558 1 133.192 84.6193 -5.55112e-17
559 2 37.1272 193.884 -5.55112e-17
560 2 124.522 93.2841 -5.55112e-17
561 2 126.306 213.097 -5.55112e-17
562 2 32.1724 217.271 -5.55112e-17
563 1 195.689 142.242 -5.55112e-17
564 2 181.28 187.178 -5.55112e-17
565 2 24.6987 214.941 -5.55112e-17
566 2 218.153 22.2173 -5.55112e-17
567 1 127.027 186.116 -5.55112e-17
568 1 38.7279 121.676 -5.55112e-17
569 2 155.685 49.2414 -5.55112e-17
570 2 182.927 131.068 -5.55112e-17
571 2 80.5876 17.7351 -5.55112e-17
572 1 110.255 89.2497 -5.55112e-17
573 2 127.859 94.541 -5.55112e-17
574 2 138.963 56.2633 -5.55112e-17
575 1 54.7984 140.354 -5.55112e-17
576 1 164.322 214.353 -5.55112e-17
577 1 128.823 212.586 -5.55112e-17
578 1 152.853 143.061 -5.55112e-17
579 2 189.363 37.8936 -5.55112e-17
580 1 190.084 217.809 -5.55112e-17
581 1 50.6011 126.048 -5.55112e-17
582 2 132.307 16.256 -5.55112e-17
583 2 78.0671 158.235 -5.55112e-17
584 2 173.18 24.9205 -5.55112e-17
585 1 4.85605 147.82 -5.55112e-17
586 1 75.0748 127.512 -5.55112e-17
587 1 33.8223 34.0936 -5.55112e-17
588 2 214.655 180.336 -5.55112e-17
589 1 36.3095 148.655 -5.55112e-17
590 2 150.168 62.0779 -5.55112e-17
591 2 107.781 84.8896 -5.55112e-17
592 1 209.14 1.34516 -5.55112e-17
593 1 128.305 190.519 -5.55112e-17
594 1 152.314 193.544 -5.55112e-17
595 1 214.331 146.898 -5.55112e-17
596 2 19.8922 37.8207 -5.55112e-17
597 2 188.422 178.391 -5.55112e-17
598 2 93.2164 163.3 -5.55112e-17
599 2 196.274 46.3198 -5.55112e-17
600 2 55.5582 111.146 -5.55112e-17
601 1 141.097 62.217 -5.55112e-17
602 1 66.1805 180.156 -5.55112e-17
603 2 72.9405 192.088 -5.55112e-17
604 1 138.997 2.67111 -5.55112e-17
605 2 150.298 169.608 -5.55112e-17
606 2 184.659 67.5733 -5.55112e-17
607 2 146.438 88.738 -5.55112e-17
608 2 55.609 167.705 -5.55112e-17
609 1 70.1085 107.238 -5.55112e-17
610 2 93.2559 159.877 -5.55112e-17
611 1 204.492 197.428 -5.55112e-17
612 1 29.1954 164.933 -5.55112e-17
613 2 89.8831 209.346 -5.55112e-17
614 1 59.4191 11.2606 -5.55112e-17
615 1 218.588 45.1997 -5.55112e-17
616 2 131.788 3.45656 -5.55112e-17
617 1 173.859 29.9418 -5.55112e-17
618 1 165.688 48.9877 -5.55112e-17
619 1 47.5063 33.2866 -5.55112e-17
620 2 89.255 133.025 -5.55112e-17
621 2 184.247 213.603 -5.55112e-17
622 2 120.842 190.038 -5.55112e-17
623 2 14.9627 12.5913 -5.55112e-17
624 1 86.3961 51.4208 -5.55112e-17
625 2 129.919 18.5588 -5.55112e-17
626 1 48.9531 103.768 -5.55112e-17
627 2 80.8639 151.019 -5.55112e-17
628 1 174.076 210.449 -5.55112e-17
629 1 29.9202 172.707 -5.55112e-17
630 2 204.82 4.56008 -5.55112e-17
631 2 183.675 50.7359 -5.55112e-17
632 2 9.83783 200.464 -5.55112e-17
633 2 99.7137 93.9572 -5.55112e-17
634 2 93.2702 87.5393 -5.55112e-17
635 2 166.542 135.363 -5.55112e-17
636 1 0.271604 148.701 -5.55112e-17
637 1 55.284 185.821 -5.55112e-17
638 1 171.635 26.8088 -5.55112e-17
639 2 70.7124 43.7118 -5.55112e-17
640 2 143.613 180.123 -5.55112e-17
641 1 115.229 82.9694 -5.55112e-17
642 2 69.6022 18.0966 -5.55112e-17
643 1 130.389 151.622 -5.55112e-17
644 2 42.9521 110.154 -5.55112e-17
645 2 217.262 133.489 -5.55112e-17
646 1 193.505 118.308 -5.55112e-17
647 2 157.023 58.2664 -5.55112e-17
648 2 10.9123 3.41637 -5.55112e-17
649 1 48.2914 111.886 -5.55112e-17
650 1 61.0834 212.396 -5.55112e-17
651 1 30.6002 119.444 -5.55112e-17
652 2 183.872 193.632 -5.55112e-17
653 2 59.2785 216.293 -5.55112e-17
654 1 145.288 203.313 -5.55112e-17
655 1 165.185 116.698 -5.55112e-17
656 1 86.9684 82.8639 -5.55112e-17
657 1 207.351 134.414 -5.55112e-17
658 2 216.206 205.831 -5.55112e-17
659 2 20.4479 170.094 -5.55112e-17
660 1 175.683 192.791 -5.55112e-17
661 2 137.697 164.955 -5.55112e-17
662 2 62.1448 108.024 -5.55112e-17
663 1 103.388 4.78922 -5.55112e-17
664 1 5.82934 194.515 -5.55112e-17
665 1 45.296 103.002 -5.55112e-17
666 1 38.7588 1.85116 -5.55112e-17
667 1 170.374 33.758 -5.55112e-17
668 1 69.6204 69.785 -5.55112e-17
669 1 150.563 84.7367 -5.55112e-17
670 2 117.279 88.1974 -5.55112e-17
671 1 113.893 56.8564 -5.55112e-17
672 1 57.5405 98.8054 -5.55112e-17
673 2 90.3813 191.25 -5.55112e-17
674 2 47.443 13.8544 -5.55112e-17
675 2 187.424 134.379 -5.55112e-17
676 1 149.787 164.71 -5.55112e-17
677 2 196.898 92.1303 -5.55112e-17
678 1 37.9797 94.156 -5.55112e-17
679 1 195.177 31.6775 -5.55112e-17
680 2 195.078 69.5155 -5.55112e-17
681 1 151.479 195.629 -5.55112e-17
682 1 8.74035 46.0836 -5.55112e-17
683 2 3.97043 25.6592 -5.55112e-17
684 1 197.982 69.8367 -5.55112e-17
685 1 74.4157 86.31 -5.55112e-17
686 1 195.093 217.289 -5.55112e-17
687 1 97.2584 93.9216 -5.55112e-17
688 1 70.0085 78.4906 -5.55112e-17
689 2 155.072 16.5345 -5.55112e-17
690 1 149.364 204.949 -5.55112e-17
691 2 159.822 14.2494 -5.55112e-17
692 2 28.4298 144.976 -5.55112e-17
693 1 159.808 19.2322 -5.55112e-17
694 2 20.4519 144.353 -5.55112e-17
695 2 43.8821 95.0807 -5.55112e-17
696 2 156.004 11.6073 -5.55112e-17
697 1 103.402 30.8254 -5.55112e-17
698 2 200.786 52.3357 -5.55112e-17
699 1 173.839 135.241 -5.55112e-17
700 2 73.1836 88.516 -5.55112e-17
701 2 59.4131 87.9809 -5.55112e-17
702 1 208.683 50.7029 -5.55112e-17
703 1 166.353 167.347 -5.55112e-17
704 1 70.9713 9.26706 -5.55112e-17
705 1 64.2188 132.591 -5.55112e-17
706 1 84.9539 213.677 -5.55112e-17
707 1 19.3509 157.993 -5.55112e-17
708 2 46.3409 0.488457 -5.55112e-17
709 1 101.499 82.105 -5.55112e-17
710 2 14.2659 71.8394 -5.55112e-17
711 2 155.853 128.621 -5.55112e-17
712 1 139.003 69.4198 -5.55112e-17
713 1 218.442 163.477 -5.55112e-17
714 2 67.0038 175.755 -5.55112e-17
715 2 190.573 87.8151 -5.55112e-17
716 1 9.24861 104.547 -5.55112e-17
717 1 183.029 100.064 -5.55112e-17
718 2 23.1359 210.949 -5.55112e-17
719 1 143.229 74.4179 -5.55112e-17
720 2 119.502 48.4061 -5.55112e-17
721 2 96.2058 10.3041 -5.55112e-17
722 2 51.6047 188.368 -5.55112e-17
723 2 211.715 101.187 -5.55112e-17
724 2 64.3787 175.673 -5.55112e-17
725 2 202.778 41.1116 -5.55112e-17
726 2 91.3067 32.5564 -5.55112e-17
727 2 21.4503 46.3794 -5.55112e-17
728 1 204.984 38.8989 -5.55112e-17
729 2 100.399 140.68 -5.55112e-17
730 2 167.694 55.0456 -5.55112e-17
731 1 109.479 193.479 -5.55112e-17
732 2 102.205 67.137 -5.55112e-17
733 2 141.135 125.028 -5.55112e-17
734 2 191.671 44.5386 -5.55112e-17
735 2 105.553 123.378 -5.55112e-17
736 1 84.743 196.343 -5.55112e-17
737 2 190.289 20.8348 -5.55112e-17
738 2 26.1347 47.0311 -5.55112e-17
739 2 57.162 37.0047 -5.55112e-17
740 2 30.6009 37.527 -5.55112e-17
741 2 26.115 179.596 -5.55112e-17
742 1 3.49861 152.21 -5.55112e-17
743 2 111.029 164.834 -5.55112e-17
744 1 106.349 91.8949 -5.55112e-17
745 2 8.39183 87.622 -5.55112e-17
746 1 181.363 174.124 -5.55112e-17
747 1 99.586 5.70269 -5.55112e-17
748 2 89.5622 37.713 -5.55112e-17
749 1 171.382 192.756 -5.55112e-17
750 1 80.9709 207.972 -5.55112e-17
751 1 117.364 143.501 -5.55112e-17
752 2 65.3303 28.8677 -5.55112e-17
753 1 50.9636 147.723 -5.55112e-17
754 2 28.5052 148.471 -5.55112e-17
755 1 183.079 161.536 -5.55112e-17
756 2 2.6334 12.9589 -5.55112e-17
757 1 214.171 107.508 -5.55112e-17
758 2 110.795 208.498 -5.55112e-17
759 1 157.396 7.01806 -5.55112e-17
760 1 50.5942 204.838 -5.55112e-17
761 2 21.1003 115.871 -5.55112e-17
762 1 210.202 193.572 -5.55112e-17
763 2 84.5819 193.444 -5.55112e-17
764 2 148.679 217.59 -5.55112e-17
765 1 13.1455 175.936 -5.55112e-17
766 2 124.279 186.962 -5.55112e-17
767 2 153.692 126.006 -5.55112e-17
768 2 24.016 105.166 -5.55112e-17
769 2 187.593 158.821 -5.55112e-17
770 1 137.912 22.5642 -5.55112e-17
771 1 58.8439 60.607 -5.55112e-17
772 1 179.237 83.7675 -5.55112e-17
773 2 8.9441 17.9894 -5.55112e-17
774 1 80.1986 86.0881 -5.55112e-17
775 1 212.321 151.88 -5.55112e-17
776 2 149.07 213.248 -5.55112e-17
777 2 72.0887 133.952 -5.55112e-17
778 1 100.345 79.4485 -5.55112e-17
779 1 173.634 45.7697 -5.55112e-17
780 2 51.8838 34.6542 -5.55112e-17
781 1 103.997 104.085 -5.55112e-17
782 2 4.14338 46.1469 -5.55112e-17
783 1 9.85078 61.569 -5.55112e-17
784 2 36.2332 9.58414 -5.55112e-17
785 1 12.7287 110.952 -5.55112e-17
786 1 13.6921 24.8625 -5.55112e-17
787 2 152.19 118.924 -5.55112e-17
788 2 160.638 153.606 -5.55112e-17
789 2 165.674 18.6095 -5.55112e-17
790 2 108.593 131.99 -5.55112e-17
791 2 127.611 206.961 -5.55112e-17
792 1 184.309 29.4468 -5.55112e-17
793 1 85.8668 85.5984 -5.55112e-17
794 2 92.4234 62.7737 -5.55112e-17
795 2 143.006 28.4871 -5.55112e-17
796 1 210.729 83.9576 -5.55112e-17
797 1 110.299 51.2501 -5.55112e-17
798 1 183.701 121.887 -5.55112e-17
799 2 68.532 109.485 -5.55112e-17
800 1 147.275 103.792 -5.55112e-17
801 2 143.452 1.94666 -5.55112e-17
802 1 14.3682 39.3328 -5.55112e-17
803 1 133.492 74.7188 -5.55112e-17
804 1 5.15997 61.1863 -5.55112e-17
805 2 180.618 120.281 -5.55112e-17
806 2 205.964 175.846 -5.55112e-17
807 2 127.468 130.881 -5.55112e-17
808 2 54.1206 82.5978 -5.55112e-17
809 1 94.6858 176.664 -5.55112e-17
810 2 164.834 150.413 -5.55112e-17
811 2 92.5464 93.2687 -5.55112e-17
812 1 172.754 18.3205 -5.55112e-17
813 1 195.815 105.461 -5.55112e-17
814 1 210.97 124.552 -5.55112e-17
815 1 103.339 131.833 -5.55112e-17
816 1 76.4432 150.703 -5.55112e-17
817 2 159.739 58.8167 -5.55112e-17
818 2 55.5947 100.875 -5.55112e-17
819 2 193.216 153.462 -5.55112e-17
820 1 87.2827 179.569 -5.55112e-17
821 1 78.4215 147.74 -5.55112e-17
822 2 107.522 190.698 -5.55112e-17
823 1 24.4209 187.12 -5.55112e-17
824 1 72.2397 112.723 -5.55112e-17
825 1 92.3715 100.375 -5.55112e-17
826 2 165.096 211.935 -5.55112e-17
827 2 180.799 202.342 -5.55112e-17
828 1 152.553 208.611 -5.55112e-17
829 2 122.938 209.084 -5.55112e-17
830 1 121.54 102.33 -5.55112e-17
831 2 91.2236 199.155 -5.55112e-17
832 2 215.592 91.793 -5.55112e-17
833 2 1.42793 189.14 -5.55112e-17
834 1 192.067 213.422 -5.55112e-17
835 1 133.516 158.874 -5.55112e-17
836 1 57.0364 77.0007 -5.55112e-17
837 2 75.0099 96.7053 -5.55112e-17
838 2 210.451 74.3023 -5.55112e-17
839 1 134.612 148.171 -5.55112e-17
840 2 182.548 21.2291 -5.55112e-17
841 2 167.252 1.14495 -5.55112e-17
842 1 22.2186 158.486 -5.55112e-17
843 1 136.6 68.1546 -5.55112e-17
844 2 206.171 9.25498 -5.55112e-17
845 1 24.2208 40.451 -5.55112e-17
846 2 195.458 75.0287 -5.55112e-17
847 1 167.568 20.4188 -5.55112e-17
848 2 51.047 145.32 -5.55112e-17
849 1 95.5824 126.738 -5.55112e-17
850 2 22.5257 62.492 -5.55112e-17
851 2 79.6521 46.5731 -5.55112e-17
852 1 132.657 180.681 -5.55112e-17
853 1 179.392 102.667 -5.55112e-17
854 2 19.668 54.0008 -5.55112e-17
855 2 81.5394 60.5228 -5.55112e-17
856 1 113.896 11.0567 -5.55112e-17