ITEM: TIMESTEP
0
ITEM: NUMBER OF ATOMS
7200
ITEM: BOX BOUNDS xy xz yz pp pp pp
0.0000000000000000e+00 2.1900000000000000e+02 0.0000000000000000e+00
0.0000000000000000e+00 2.1900000000000000e+02 0.0000000000000000e+00
-3.6499999999999999e-01 3.6499999999999999e-01 0.0000000000000000e+00
ITEM: ATOMS id type x y z
1 1 37.8793 16.752 -5.55112e-17
2 2 208.786 149.153 -5.55112e-17
3 2 0.84539 17.7159 -5.55112e-17
4 1 200.815 149.047 -5.55112e-17
5 1 174.668 210.27 -5.55112e-17
6 1 68.2637 122.447 -5.55112e-17
7 2 1.92833 64.3615 -5.55112e-17
8 2 156.221 140.175 -5.55112e-17
9 1 13.1189 3.61455 -5.55112e-17
10 2 153.609 110.952 -5.55112e-17
11 2 89.0742 192.075 -5.55112e-17
12 1 4.62477 99.6365 -5.55112e-17
13 2 217.626 214.757 -5.55112e-17
14 1 82.7605 93.6244 -5.55112e-17
15 2 144.589 173.738 -5.55112e-17
16 2 57.1824 207.621 -5.55112e-17
17 1 22.5871 131.806 -5.55112e-17
18 2 94.0511 128.584 -5.55112e-17
19 1 0.785059 172.943 -5.55112e-17
20 1 158.464 80.5927 -5.55112e-17
21 1 195.258 71.5313 -5.55112e-17
22 2 184.271 113.444 -5.55112e-17
23 2 156.416 115.019 -5.55112e-17
24 2 117.304 84.3791 -5.55112e-17
25 2 207.244 191.513 -5.55112e-17
26 2 73.6302 92.448 -5.55112e-17
27 1 176.624 13.7185 -5.55112e-17
28 2 18.1966 139.474 -5.55112e-17
29 2 19.0868 181.013 -5.55112e-17
30 2 1.61856 160.273 -5.55112e-17
31 2 86.3122 113.474 -5.55112e-17
32 1 185.295 31.0044 -5.55112e-17
33 2 87.2284 158.92 -5.55112e-17
34 2 46.2302 184.687 -5.55112e-17
35 2 17.8525 145.934 -5.55112e-17
36 1 166.516 106.158 -5.55112e-17
37 1 205.146 109.736 -5.55112e-17
38 2 20.2425 121.739 -5.55112e-17
39 1 159.016 4.83219 -5.55112e-17
40 2 80.5256 22.6339 -5.55112e-17
41 1 216.754 22.2233 -5.55112e-17
42 1 149.758 57.3042 -5.55112e-17
43 1 112.053 16.7831 -5.55112e-17
44 1 189.146 187.787 -5.55112e-17
45 2 48.7074 132.651 -5.55112e-17
46 1 125.339 134.3 -5.55112e-17
47 2 148.175 50.0613 -5.55112e-17
48 2 85.3623 101.009 -5.55112e-17
49 1 156.331 107.093 -5.55112e-17
50 2 104.177 73.87 -5.55112e-17
51 1 102.217 117.324 -5.55112e-17
52 1 214.031 65.5317 -5.55112e-17
53 2 15.9895 63.9646 -5.55112e-17
54 1 107.727 55.6254 -5.55112e-17
55 2 112.293 93.8053 -5.55112e-17
56 1 212.187 92.1548 -5.55112e-17
57 2 177.882 216.253 -5.55112e-17
58 1 22.9653 75.178 -5.55112e-17
59 1 33.1466 151.161 -5.55112e-17
60 2 190.162 17.4779 -5.55112e-17
61 1 15.37 36.8163 -5.55112e-17
62 1 42.9051 46.7879 -5.55112e-17
63 2 82.9905 194.793 -5.55112e-17
64 1 207.138 210.637 -5.55112e-17
65 2 78.1552 84.0652 -5.55112e-17
66 2 20.2673 130.963 -5.55112e-17
67 2 68.7793 138.686 -5.55112e-17
68 1 158.182 189.516 -5.55112e-17
69 2 55.4813 59.2259 -5.55112e-17
70 1 144.073 169.243 -5.55112e-17
71 1 194.791 126.023 -5.55112e-17
72 2 101.499 79.4598 -5.55112e-17
73 2 92.2079 60.6096 -5.55112e-17
74 2 43.151 61.1027 -5.55112e-17
75 1 210.307 107.224 -5.55112e-17
76 2 31.2525 29.503 -5.55112e-17
77 2 48.2244 181.973 -5.55112e-17
78 1 163.299 23.489 -5.55112e-17
79 2 150.751 127.515 -5.55112e-17
80 1 50.439 194.774 -5.55112e-17
81 1 60.0923 5.05665 -5.55112e-17
82 1 139.916 72.3103 -5.55112e-17
83 1 51.6109 202.548 -5.55112e-17
84 2 137.162 27.0412 -5.55112e-17
85 2 14.2413 41.7963 -5.55112e-17
86 2 128.22 12.7798 -5.55112e-17
87 2 217.817 12.5865 -5.55112e-17
88 1 70.7791 29.0428 -5.55112e-17
89 2 40.5782 142.317 -5.55112e-17
90 2 209.257 75.5838 -5.55112e-17
91 2 17.8492 27.9673 -5.55112e-17
92 1 186.872 197.687 -5.55112e-17
93 2 71.1356 191.862 -5.55112e-17
94 2 33.6566 77.8966 -5.55112e-17
95 1 38.3487 109.25 -5.55112e-17
96 2 81.2767 200.035 -5.55112e-17
97 2 178.117 191.474 -5.55112e-17
98 2 164.48 163.096 -5.55112e-17
99 1 201.001 87.4754 -5.55112e-17
100 2 193.279 9.72501 -5.55112e-17
101 1 14.3242 8.68106 -5.55112e-17
102 1 94.4275 139.579 -5.55112e-17
103 2 79.6554 11.9991 -5.55112e-17
104 2 142.634 202.26 -5.55112e-17
105 1 154.93 155.699 -5.55112e-17
106 1 98.7739 20.3723 -5.55112e-17
107 1 57.3485 169.509 -5.55112e-17
108 1 3.11638 41.686 -5.55112e-17
109 2 154.049 206.889 -5.55112e-17
110 2 97.4424 47.0484 -5.55112e-17
111 1 185.036 116.09 -5.55112e-17
112 2 184.001 137.255 -5.55112e-17
113 1 145.339 189.526 -5.55112e-17
114 1 45.0334 202.834 -5.55112e-17
115 2 88.0569 115.638 -5.55112e-17
116 2 101.061 208.304 -5.55112e-17
117 1 50.7091 180.854 -5.55112e-17
118 1 165.684 149.378 -5.55112e-17
119 2 97.4614 144.329 -5.55112e-17
120 2 24.3286 144.788 -5.55112e-17
121 1 86.7078 79.3696 -5.55112e-17
122 2 68.3494 215.35 -5.55112e-17
123 2 77.3435 70.9007 -5.55112e-17
124 1 67.6989 67.7938 -5.55112e-17
125 1 51.5051 107.577 -5.55112e-17
126 2 37.4292 184.107 -5.55112e-17
127 2 187.875 190.335 -5.55112e-17
128 1 122.06 177.699 -5.55112e-17
129 1 189.085 128.768 -5.55112e-17
130 2 23.8206 202.968 -5.55112e-17
131 1 160.078 89.4431 -5.55112e-17
132 1 117.357 150.797 -5.55112e-17
133 1 25.5621 69.7724 -5.55112e-17
134 1 89.0797 19.6411 -5.55112e-17
135 2 207.327 122.308 -5.55112e-17
136 1 93.7866 203.495 -5.55112e-17
137 1 9.23599 30.5473 -5.55112e-17
138 2 168.432 107.78 -5.55112e-17
139 1 38.2715 32.7726 -5.55112e-17
140 1 115.564 78.7407 -5.55112e-17
141 1 29.0701 30.5362 -5.55112e-17
142 1 152.71 88.5883 -5.55112e-17
143 1 118.673 174.162 -5.55112e-17
144 1 57.6591 20.6761 -5.55112e-17
145 2 163.071 79.7923 -5.55112e-17
146 1 161.605 38.1166 -5.55112e-17
147 2 56.5562 100.936 -5.55112e-17
148 1 157.405 142.492 -5.55112e-17
149 1 98.412 176.913 -5.55112e-17
150 2 201.715 197.628 -5.55112e-17
151 1 103.785 84.9301 -5.55112e-17
152 1 11.2058 46.4417 -5.55112e-17
153 2 121.784 180.327 -5.55112e-17
154 1 144.425 133.521 -5.55112e-17
155 2 185.799 180.897 -5.55112e-17
156 2 180.219 73.6628 -5.55112e-17
157 2 80.2789 32.9126 -5.55112e-17
158 2 77.6479 27.3318 -5.55112e-17
159 2 212.412 25.9883 -5.55112e-17
160 2 182.082 218.066 -5.55112e-17
161 2 17.0039 58.0237 -5.55112e-17
162 1 89.0972 150.318 -5.55112e-17
163 1 200.658 177.902 -5.55112e-17
164 2 195.255 192.58 -5.55112e-17
165 1 20.5429 183.238 -5.55112e-17
166 2 115.432 115.901 -5.55112e-17
167 1 77.1176 31.8273 -5.55112e-17
168 1 151.59 4.61565 -5.55112e-17
169 2 36.6145 1.63573 -5.55112e-17
170 1 164.48 20.7872 -5.55112e-17
171 1 23.9666 95.0153 -5.55112e-17
172 1 170.959 22.2922 -5.55112e-17
173 1 91.0502 27.5488 -5.55112e-17
174 2 104.64 49.167 -5.55112e-17
175 2 130.288 84.8944 -5.55112e-17
176 1 131.223 160.938 -5.55112e-17
177 2 163.128 18.6351 -5.55112e-17
178 1 119.508 59.6883 -5.55112e-17
179 2 73.9053 43.3039 -5.55112e-17
180 1 60.7698 204.087 -5.55112e-17
181 1 14.5492 80.7624 -5.55112e-17
182 1 161.971 96.8498 -5.55112e-17
183 1 76.51 29.67 -5.55112e-17
184 2 134.41 101.954 -5.55112e-17
185 2 159.547 92.1125 -5.55112e-17
186 2 180.766 184.089 -5.55112e-17
187 2 107.804 50.1521 -5.55112e-17
188 2 62.8706 26.4396 -5.55112e-17
189 1 47.4287 190.11 -5.55112e-17
190 1 38.6911 50.7204 -5.55112e-17
191 2 67.651 38.4568 -5.55112e-17
192 2 15.6226 49.5186 -5.55112e-17
193 1 41.4319 1.85365 -5.55112e-17
194 1 102.844 3.0851 -5.55112e-17
195 2 20.3545 37.1965 -5.55112e-17
196 1 25.6543 92.7717 -5.55112e-17
197 2 202.634 179.471 -5.55112e-17
198 2 80.9888 84.1373 -5.55112e-17
199 2 197.033 119.653 -5.55112e-17
200 2 205.171 106.84 -5.55112e-17
201 2 202.645 0.521372 -5.55112e-17
202 1 147.587 162.332 -5.55112e-17
203 1 77.1778 209.257 -5.55112e-17
204 2 193.731 36.872 -5.55112e-17
205 2 45.1926 45.0184 -5.55112e-17
206 2 211.509 196.874 -5.55112e-17
207 1 50.3446 116.189 -5.55112e-17
208 2 212.789 71.7998 -5.55112e-17
209 2 197.34 116.711 -5.55112e-17
210 1 79.6175 129.939 -5.55112e-17
211 1 59.0975 171.528 -5.55112e-17
212 1 108.667 79.2495 -5.55112e-17
213 1 176.666 36.2716 -5.55112e-17
214 2 191.091 139.893 -5.55112e-17
215 1 162.522 92.8426 -5.55112e-17
216 1 105.138 190.41 -5.55112e-17
217 1 127.929 93.0778 -5.55112e-17
218 2 190.66 64.5587 -5.55112e-17
219 2 214.326 60.101 -5.55112e-17
220 1 86.8547 73.749 -5.55112e-17
221 2 146.545 18.4975 -5.55112e-17
222 1 133.599 96.9961 -5.55112e-17
223 1 101.072 213.352 -5.55112e-17
224 2 57.6199 62.4229 -5.55112e-17
225 2 93.9649 20.5254 -5.55112e-17
226 1 44.9691 141.796 -5.55112e-17
227 2 216.23 54.4545 -5.55112e-17
228 2 8.82547 210.15 -5.55112e-17
229 1 7.63344 84.4035 -5.55112e-17
230 1 178.711 161.96 -5.55112e-17
231 2 44.6856 129.095 -5.55112e-17
232 1 56.8984 39.6385 -5.55112e-17
233 2 208.942 70.9794 -5.55112e-17
234 1 36.7546 217.853 -5.55112e-17
235 1 60.9518 6.98274 -5.55112e-17
236 2 77.8852 154.353 -5.55112e-17
237 2 26.525 7.05943 -5.55112e-17
238 2 195.347 179.399 -5.55112e-17
239 1 183.831 43.2767 -5.55112e-17
240 1 184.572 72.6884 -5.55112e-17
241 2 144.009 2.79572 -5.55112e-17
242 1 147.3 164.96 -5.55112e-17
243 2 122.826 83.4726 -5.55112e-17
244 2 170.925 54.7423 -5.55112e-17
245 1 110.271 36.4846 -5.55112e-17
246 2 141.833 61.4842 -5.55112e-17
247 2 40.0746 38.6971 -5.55112e-17
248 1 4.72093 184.522 -5.55112e-17
249 1 50.4789 33.3948 -5.55112e-17
250 1 174.52 32.704 -5.55112e-17
251 2 194.08 195.186 -5.55112e-17
252 1 217.976 202.797 -5.55112e-17
253 2 140.687 203.974 -5.55112e-17
254 2 94.0577 198.031 -5.55112e-17
255 2 202.884 117.335 -5.55112e-17
256 1 89.8581 61.443 -5.55112e-17
257 2 76.2688 214.294 -5.55112e-17
258 1 118.71 141.25 -5.55112e-17
259 2 125.377 92.8085 -5.55112e-17
260 1 173.865 24.8977 -5.55112e-17
261 2 210.973 168.506 -5.55112e-17
262 2 129.442 94.9359 -5.55112e-17
263 2 111.124 66.4555 -5.55112e-17
264 1 188.2 140.372 -5.55112e-17
265 1 21.1571 21.3318 -5.55112e-17
266 1 124.725 197.243 -5.55112e-17
267 2 65.7771 131.529 -5.55112e-17
268 1 54.3234 165.117 -5.55112e-17
269 2 217.209 218.439 -5.55112e-17
270 2 213.607 68.2501 -5.55112e-17
271 2 177.835 58.0153 -5.55112e-17
272 1 31.9917 215.059 -5.55112e-17
273 1 185.098 190.213 -5.55112e-17
274 1 70.9329 10.3517 -5.55112e-17
275 1 6.04125 159.033 -5.55112e-17
276 1 19.4665 208.769 -5.55112e-17
277 1 164.747 25.4087 -5.55112e-17
278 2 36.3653 76.8559 -5.55112e-17
279 2 64.1063 94.3076 -5.55112e-17
280 1 23.9479 19.3281 -5.55112e-17
281 2 66.2726 192.996 -5.55112e-17
282 2 94.7483 66.3791 -5.55112e-17
283 2 189.779 197.703 -5.55112e-17
284 1 46.5693 10.8319 -5.55112e-17
285 1 91.1862 129.106 -5.55112e-17
286 2 119.698 14.416 -5.55112e-17
287 2 142.262 55.7018 -5.55112e-17
288 1 35.8078 109.728 -5.55112e-17
289 2 135.116 25.1672 -5.55112e-17
290 1 120.699 210.783 -5.55112e-17
291 2 64.5458 184.544 -5.55112e-17
292 1 154.125 116.457 -5.55112e-17
293 1 126.791 124.633 -5.55112e-17
294 1 136.939 100.758 -5.55112e-17
295 2 171.235 201.353 -5.55112e-17
296 1 25.9346 88.4934 -5.55112e-17
297 1 61.3112 165.545 -5.55112e-17
298 2 137.674 20.0656 -5.55112e-17
299 1 201.248 68.9247 -5.55112e-17
300 2 39.017 30.3077 -5.55112e-17
301 2 161.909 9.55314 -5.55112e-17
302 2 154.224 201.745 -5.55112e-17
303 1 147.498 71.3489 -5.55112e-17
304 1 150.502 173.701 -5.55112e-17
305 1 57.8159 23.219 -5.55112e-17
306 2 204.802 209.802 -5.55112e-17
307 2 205.869 19.0994 -5.55112e-17
308 2 34.3346 97.2156 -5.55112e-17
309 1 121.236 44.5413 -5.55112e-17
310 1 102.878 34.9062 -5.55112e-17
311 1 189.099 62.4185 -5.55112e-17
312 2 63.0903 205.202 -5.55112e-17
313 2 109.23 116.558 -5.55112e-17
314 1 175.101 148.707 -5.55112e-17
315 2 149.665 170.389 -5.55112e-17
316 1 138.147 138.341 -5.55112e-17
317 1 214.129 190.03 -5.55112e-17
318 1 119.713 118.596 -5.55112e-17
319 2 4.88127 113.361 -5.55112e-17
320 1 205.114 189.851 -5.55112e-17
321 1 30.6528 163.491 -5.55112e-17
322 1 34.585 177.301 -5.55112e-17
323 2 48.1296 84.6289 -5.55112e-17
324 2 99.0426 71.5984 -5.55112e-17
325 2 180.795 134.083 -5.55112e-17
326 1 190.179 109.096 -5.55112e-17
327 1 73.7851 35.7167 -5.55112e-17
328 2 180.379 175.622 -5.55112e-17
329 2 144.285 85.0256 -5.55112e-17
330 2 169.824 45.1498 -5.55112e-17
331 2 51.0494 40.1732 -5.55112e-17
332 2 211.614 94.6487 -5.55112e-17
333 2 102.843 136.017 -5.55112e-17
334 2 156.182 67.8337 -5.55112e-17
335 1 76.8682 151.646 -5.55112e-17
336 2 218.806 167.946 -5.55112e-17
337 2 40.156 133.518 -5.55112e-17
338 1 12.7893 120.884 -5.55112e-17
339 2 125.474 194.735 -5.55112e-17
340 2 153.247 9.71048 -5.55112e-17
341 2 108.4 53.2837 -5.55112e-17
342 2 68.9949 19.9201 -5.55112e-17
343 2 150.938 142.642 -5.55112e-17
344 1 32.3714 123.992 -5.55112e-17
345 2 76.3785 135.634 -5.55112e-17
346 2 15.9264 186.222 -5.55112e-17
347 1 15.6126 52.1137 -5.55112e-17
348 1 30.0703 123.439 -5.55112e-17
349 2 150.819 49.0506 -5.55112e-17
350 2 78.9351 114.25 -5.55112e-17
351 1 172.838 63.4663 -5.55112e-17
352 1 85.6118 208.967 -5.55112e-17
353 2 178.201 187.979 -5.55112e-17
354 2 182.733 40.7662 -5.55112e-17
355 1 24.6577 83.6496 -5.55112e-17
356 2 92.0297 216.026 -5.55112e-17
357 1 157.373 179.627 -5.55112e-17
358 1 113.646 151.154 -5.55112e-17
359 1 18.5325 187.714 -5.55112e-17
360 1 40.4419 144.867 -5.55112e-17
361 2 129.244 19.6452 -5.55112e-17
362 2 100.193 15.5463 -5.55112e-17
363 1 103.461 148.422 -5.55112e-17
364 2 53.4313 48.9445 -5.55112e-17
365 1 29.8155 186.1 -5.55112e-17
366 1 94.3244 160.015 -5.55112e-17
367 1 45.927 68.0688 -5.55112e-17
368 1 80.1137 156.165 -5.55112e-17
369 2 77.4499 104.289 -5.55112e-17
370 1 204.437 62.0835 -5.55112e-17
371 2 208.814 52.4502 -5.55112e-17
372 1 199.917 46.1612 -5.55112e-17
373 2 29.1031 178.625 -5.55112e-17
374 2 146.142 128.467 -5.55112e-17
375 1 199.354 143.682 -5.55112e-17
376 1 146.919 91.4231 -5.55112e-17
377 2 66.3714 92.1797 -5.55112e-17
378 2 139.373 63.0378 -5.55112e-17
379 2 197.238 142.53 -5.55112e-17
380 1 61.4686 14.9588 -5.55112e-17
381 1 11.0219 196.098 -5.55112e-17
382 1 10.4684 93.7667 -5.55112e-17
383 1 195.966 209.824 -5.55112e-17
384 2 92.4466 79.2677 -5.55112e-17
385 1 217.99 107.64 -5.55112e-17
386 2 149.941 99.6474 -5.55112e-17
387 1 154.572 167.396 -5.55112e-17
388 1 36.9154 121.393 -5.55112e-17
389 2 85.2833 144.58 -5.55112e-17
390 1 29.9262 74.1826 -5.55112e-17
391 1 203.079 211.562 -5.55112e-17
392 2 66.2772 208.044 -5.55112e-17
393 2 102.235 105.091 -5.55112e-17
394 1 141.839 122.088 -5.55112e-17
395 1 171.795 73.1694 -5.55112e-17
396 2 196.213 31.9783 -5.55112e-17
397 1 146.091 216.298 -5.55112e-17
398 2 10.6815 166.817 -5.55112e-17
399 2 200.39 22.7834 -5.55112e-17
400 2 52.881 184.931 -5.55112e-17
401 2 129.562 151.368 -5.55112e-17
402 1 68.247 14.8079 -5.55112e-17
403 1 201.511 31.9273 -5.55112e-17
404 2 182.732 146.409 -5.55112e-17
405 1 218.599 63.5098 -5.55112e-17
406 2 205.953 117.28 -5.55112e-17
407 1 69.9083 2.10201 -5.55112e-17
408 1 58.9913 76.5643 -5.55112e-17
409 2 88.9818 48.4054 -5.55112e-17
410 2 79.7106 185.034 -5.55112e-17
411 1 148.271 8.83221 -5.55112e-17
412 1 71.1524 116.576 -5.55112e-17
413 1 191.747 208.18 -5.55112e-17
414 2 62.8484 53.3132 -5.55112e-17
415 1 149.735 147.07 -5.55112e-17
416 1 24.9585 107.149 -5.55112e-17
417 2 155.49 123.326 -5.55112e-17
418 2 64.9837 36.7408 -5.55112e-17
419 2 202.09 163.674 -5.55112e-17
420 2 82.5503 137.354 -5.55112e-17
421 1 176.255 105.815 -5.55112e-17
422 1 12.5691 36.9495 -5.55112e-17
423 2 114.175 146.327 -5.55112e-17
424 2 33.4731 148.335 -5.55112e-17
425 2 45.8554 65.5012 -5.55112e-17
426 1 123.389 138.941 -5.55112e-17
427 2 2.86586 47.2708 -5.55112e-17
428 1 78.0525 6.99061 -5.55112e-17
429 2 76.9549 79.0764 -5.55112e-17
430 2 126.488 87.8521 -5.55112e-17
431 1 69.9267 36.939 -5.55112e-17
432 2 130.251 163.344 -5.55112e-17
433 1 204.179 59.4206 -5.55112e-17
434 1 3.96221 158.085 -5.55112e-17
435 1 215.815 168.057 -5.55112e-17
436 2 31.4314 88.851 -5.55112e-17
437 2 137.58 150.953 -5.55112e-17
438 2 160.242 71.5902 -5.55112e-17
439 2 109.74 3.01752 -5.55112e-17
440 2 130.877 133.635 -5.55112e-17
441 1 29.4639 90.2068 -5.55112e-17
442 1 63.3799 31.9695 -5.55112e-17
443 2 120.096 9.11801 -5.55112e-17
444 1 86.6694 197.916 -5.55112e-17
445 1 77.7871 131.38 -5.55112e-17
446 2 99.7827 182.534 -5.55112e-17
447 2 44.7323 70.3524 -5.55112e-17
448 2 67.7821 202.645 -5.55112e-17
449 1 63.9672 151.519 -5.55112e-17
450 1 85.2314 136.421 -5.55112e-17
451 1 41.1661 80.2185 -5.55112e-17
452 2 7.01348 115.568 -5.55112e-17
453 1 3.62944 133.99 -5.55112e-17
454 1 86.1352 172.991 -5.55112e-17
455 2 121.049 50.4585 -5.55112e-17
456 1 140.089 149.775 -5.55112e-17
457 2 199.086 77.3217 -5.55112e-17
458 2 36.0935 43.748 -5.55112e-17
459 2 191.567 103.548 -5.55112e-17
460 1 12.0968 12.3225 -5.55112e-17
461 1 186.071 111.683 -5.55112e-17
462 1 40.1553 162.929 -5.55112e-17
463 2 90.5329 68.2718 -5.55112e-17
464 2 47.4181 156.497 -5.55112e-17
465 1 124.245 128.841 -5.55112e-17
466 2 161.435 200.013 -5.55112e-17
467 2 65.8564 5.75993 -5.55112e-17
468 2 124.288 125.314 -5.55112e-17
469 2 172.738 187.953 -5.55112e-17
470 2 101.438 94.562 -5.55112e-17
471 2 119.265 208.265 -5.55112e-17
472 2 181.052 53.9858 -5.55112e-17
473 2 64.2568 136.426 -5.55112e-17
474 2 208.853 152.505 -5.55112e-17
475 1 197.419 75.4145 -5.55112e-17
476 2 16.0769 15.4932 -5.55112e-17
477 1 40.6036 172.93 -5.55112e-17
478 1 129.174 66.5376 -5.55112e-17
479 2 167.551 102.273 -5.55112e-17
480 1 120.566 3.66012 -5.55112e-17
481 1 79.016 4.85703 -5.55112e-17
482 2 133.823 132.81 -5.55112e-17
483 1 150.52 41.5333 -5.55112e-17
484 1 123.519 81.1367 -5.55112e-17
485 2 218.04 178.331 -5.55112e-17
486 1 124.361 59.6467 -5.55112e-17
487 1 72.4956 171.054 -5.55112e-17
488 1 120.635 197.004 -5.55112e-17
489 1 165.69 191.631 -5.55112e-17
490 1 139.414 177.845 -5.55112e-17
491 1 8.11104 132.589 -5.55112e-17
492 2 19.7936 40.1315 -5.55112e-17
493 1 34.058 117.742 -5.55112e-17
494 2 99.7485 116.752 -5.55112e-17
495 1 26.1173 151.893 -5.55112e-17
496 1 201.024 17.6927 -5.55112e-17
497 1 184.308 153.412 -5.55112e-17
498 2 21.2294 173.624 -5.55112e-17
499 2 144.115 139.052 -5.55112e-17
500 2 53.005 96.724 -5.55112e-17
501 2 93.1054 165.619 -5.55112e-17
502 2 166.018 136.379 -5.55112e-17
503 2 85.4671 147.663 -5.55112e-17
504 2 104.501 168.668 -5.55112e-17
505 2 81.3722 25.3695 -5.55112e-17
506 1 158.883 114.15 -5.55112e-17
507 2 9.59855 99.0009 -5.55112e-17
508 1 118.058 148.41 -5.55112e-17
509 1 123.459 159.005 -5.55112e-17
510 1 30.2501 11.0485 -5.55112e-17
511 2 61.8816 41.1988 -5.55112e-17
512 1 148.962 185.889 -5.55112e-17
513 2 208.389 101.911 -5.55112e-17
514 2 27.2114 136.782 -5.55112e-17
515 1 116.552 142.201 -5.55112e-17
516 2 211.626 89.2725 -5.55112e-17
517 1 8.83776 67.1158 -5.55112e-17
518 2 20.4827 116.169 -5.55112e-17
519 1 195.96 86.1262 -5.55112e-17
520 2 137.016 61.3687 -5.55112e-17
521 2 131.416 21.1996 -5.55112e-17
522 1 26.897 154.214 -5.55112e-17
523 1 148.252 16.659 -5.55112e-17
524 2 58.8836 163.756 -5.55112e-17
525 2 102.282 54.6375 -5.55112e-17
526 2 17.2749 154.281 -5.55112e-17
527 1 162.656 202.303 -5.55112e-17
528 1 182.06 81.29 -5.55112e-17
529 2 62.8114 143.128 -5.55112e-17
530 2 139.125 168.781 -5.55112e-17
531 2 188.379 124.976 -5.55112e-17
532 1 182.846 176.032 -5.55112e-17
533 2 74.8714 158.723 -5.55112e-17
534 1 96.0457 196.823 -5.55112e-17
535 1 178.122 142.145 -5.55112e-17
536 2 30.4885 59.9312 -5.55112e-17
537 1 174.524 99.3882 -5.55112e-17
538 1 54.643 31.7448 -5.55112e-17
539 2 213.22 53.906 -5.55112e-17
540 1 139.332 133.8 -5.55112e-17
541 1 77.8171 142.996 -5.55112e-17
542 1 80.6375 94.6417 -5.55112e-17
543 2 85.301 153.22 -5.55112e-17
544 1 122.168 58.0188 -5.55112e-17
545 1 82.7029 68.6506 -5.55112e-17
546 2 94.6822 35.0675 -5.55112e-17
547 1 39.1935 0.446712 -5.55112e-17
548 1 155.604 143.214 -5.55112e-17
549 2 29.586 105.4 -5.55112e-17
550 2 47.4197 16.0708 -5.55112e-17
551 2 80.7272 187.934 -5.55112e-17
552 1 48.7701 64.9138 -5.55112e-17
553 2 102.743 32.1294 -5.55112e-17
554 2 89.3342 35.5829 -5.55112e-17
555 2 132.866 135.76 -5.55112e-17
556 1 63.1128 34.5748 -5.55112e-17
557 1 98.5123 17.8233 -5.55112e-17
558 1 84.3234 177.215 -5.55112e-17
559 2 119.947 150.204 -5.55112e-17
560 2 31.1393 193.471 -5.55112e-17
561 2 33.1678 44.6347 -5.55112e-17
562 2 150.68 191.806 -5.55112e-17
563 1 185.116 147.881 -5.55112e-17
564 2 180.811 141.482 -5.55112e-17
565 2 24.1284 126.503 -5.55112e-17
566 2 198.829 197.602 -5.55112e-17
567 1 0.147534 39.8425 -5.55112e-17
568 1 61.8056 36.2551 -5.55112e-17
569 2 176.478 144.205 -5.55112e-17
570 2 27.6769 197.284 -5.55112e-17
571 2 71.2676 91.024 -5.55112e-17
572 1 47.1787 137.618 -5.55112e-17
573 2 16.2693 175.27 -5.55112e-17
574 2 193.785 87.164 -5.55112e-17
575 1 75.4991 88.2088 -5.55112e-17
576 1 91.627 133.492 -5.55112e-17
577 1 44.6923 15.3815 -5.55112e-17
578 1 38.8782 18.5621 -5.55112e-17
579 2 42.9783 92.5976 -5.55112e-17
580 1 174.552 104.21 -5.55112e-17
581 1 14.8408 92.3874 -5.55112e-17
582 2 2.90927 77.2546 -5.55112e-17
583 2 29.4631 165.881 -5.55112e-17
584 2 192.574 72.2562 -5.55112e-17
585 1 107.616 106.282 -5.55112e-17
586 1 112.653 85.9327 -5.55112e-17
587 1 145.362 33.1613 -5.55112e-17
588 2 180.569 7.76561 -5.55112e-17
589 1 0.539887 74.6766 -5.55112e-17
590 2 27.6983 176.013 -5.55112e-17
591 2 21.146 164.328 -5.55112e-17
592 1 192.757 218.32 -5.55112e-17
593 1 177.861 140.117 -5.55112e-17
594 1 135.414 12.1521 -5.55112e-17
595 1 23.0036 205.66 -5.55112e-17
596 2 26.3794 4.33774 -5.55112e-17
597 2 28.946 210.864 -5.55112e-17
598 2 3.57972 102.011 -5.55112e-17
599 2 121.901 207.315 -5.55112e-17
600 2 45.3079 139.532 -5.55112e-17
601 1 104.703 87.4632 -5.55112e-17
602 1 102.238 144.653 -5.55112e-17
603 2 19.0455 119.374 -5.55112e-17
604 1 202.816 174.197 -5.55112e-17
605 2 23.7569 163.143 -5.55112e-17
606 2 8.18397 148.378 -5.55112e-17
607 2 22.6232 38.7765 -5.55112e-17
608 2 191.03 156.361 -5.55112e-17
609 1 183.061 98.7079 -5.55112e-17
610 2 81.9061 20.0499 -5.55112e-17
611 1 167.569 140.31 -5.55112e-17
612 1 33.856 137.922 -5.55112e-17
613 2 129.153 179.381 -5.55112e-17
614 1 25.2914 47.0905 -5.55112e-17
615 1 92.0067 2.59952 -5.55112e-17
616 2 172.066 103.941 -5.55112e-17
617 1 9.37144 5.85941 -5.55112e-17
618 1 135.76 81.2712 -5.55112e-17
619 1 72.245 50.1467 -5.55112e-17
620 2 129.937 123.72 -5.55112e-17
621 2 7.72501 24.9335 -5.55112e-17
622 2 11.7776 81.4014 -5.55112e-17
623 2 202.852 71.5469 -5.55112e-17
624 1 107.046 58.3014 -5.55112e-17
625 2 144.37 90.5007 -5.55112e-17
626 1 0.838344 218.862 -5.55112e-17
627 2 176.546 135.056 -5.55112e-17
628 1 31.1162 4.43914 -5.55112e-17
629 1 82.6524 66.1412 -5.55112e-17
630 2 81.0742 38.4809 -5.55112e-17
631 2 88.3587 108.102 -5.55112e-17
632 2 84.5215 203.681 -5.55112e-17
633 2 109.971 108.141 -5.55112e-17
634 2 105.159 54.2154 -5.55112e-17
635 2 73.1902 121.554 -5.55112e-17
636 1 93.6849 214.026 -5.55112e-17
637 1 159.798 50.0501 -5.55112e-17
638 1 96.5461 21.3008 -5.55112e-17
639 2 144.114 213.954 -5.55112e-17
640 2 218.628 56.0159 -5.55112e-17
641 1 116.812 185.329 -5.55112e-17
642 2 195.446 3.93303 -5.55112e-17
643 1 154.875 148.543 -5.55112e-17
644 2 212.766 11.7217 -5.55112e-17
645 2 134.394 122.464 -5.55112e-17
646 1 78.8579 101.883 -5.55112e-17
647 2 165.714 90.1219 -5.55112e-17
648 2 188.319 216.67 -5.55112e-17
649 1 72.0374 136.994 -5.55112e-17
650 1 43.6481 22.6673 -5.55112e-17
651 1 102.985 194.566 -5.55112e-17
652 2 43.2706 196.892 -5.55112e-17
653 2 78.7106 216.104 -5.55112e-17
654 1 201.313 128.028 -5.55112e-17
655 1 139.937 50.0274 -5.55112e-17
656 1 153.974 82.9034 -5.55112e-17
657 1 59.8328 118.896 -5.55112e-17
658 2 166.749 151.67 -5.55112e-17
659 2 32.1927 178.022 -5.55112e-17
660 1 151.508 112.193 -5.55112e-17
661 2 3.63286 22.3148 -5.55112e-17
662 2 35.1545 186.283 -5.55112e-17
663 1 85.9158 108.89 -5.55112e-17
664 1 6.48618 111.172 -5.55112e-17
665 1 5.75346 8.55968 -5.55112e-17
666 1 144.455 20.0652 -5.55112e-17
667 1 78.8122 24.9346 -5.55112e-17
668 1 125.527 44.7218 -5.55112e-17
669 1 170.322 47.7466 -5.55112e-17
670 2 23.9026 42.9149 -5.55112e-17
671 1 117.719 214.84 -5.55112e-17
672 1 203.292 41.9865 -5.55112e-17
673 2 153.289 211.478 -5.55112e-17
674 2 39.3146 25.1552 -5.55112e-17
675 2 84.9557 70.046 -5.55112e-17
676 1 179.627 159.623 -5.55112e-17
677 2 71.6778 204.111 -5.55112e-17
678 1 16.6659 105.041 -5.55112e-17
679 1 95.0595 164.579 -5.55112e-17
680 2 192.119 150.154 -5.55112e-17
681 1 89.6095 120.113 -5.55112e-17
682 1 68.8913 9.68225 -5.55112e-17
683 2 202.047 114.251 -5.55112e-17
684 1 86.5305 205.054 -5.55112e-17
685 1 148.588 198.094 -5.55112e-17
686 1 97.6319 108.098 -5.55112e-17
687 1 175.643 66.5647 -5.55112e-17
688 1 173.995 195.35 -5.55112e-17
689 2 163.447 134.739 -5.55112e-17
690 1 217.147 129.514 -5.55112e-17
691 2 169.597 87.2398 -5.55112e-17
692 2 137.471 10.3336 -5.55112e-17
693 1 161.108 6.38475 -5.55112e-17
694 2 210.321 32.9724 -5.55112e-17
695 2 167.966 58.004 -5.55112e-17
696 2 149.268 104.611 -5.55112e-17
697 1 176.731 78.5519 -5.55112e-17
698 2 194.98 41.9802 -5.55112e-17
699 1 18.3058 42.6883 -5.55112e-17
700 2 57.4045 159.136 -5.55112e-17
701 2 14.7627 45.2366 -5.55112e-17
702 1 57.4711 44.397 -5.55112e-17
703 1 199.367 25.0529 -5.55112e-17
704 1 18.2546 55.561 -5.55112e-17
705 1 109.211 85.2219 -5.55112e-17
706 1 72.3259 148.798 -5.55112e-17
707 1 87.5737 207.129 -5.55112e-17
708 2 194.756 0.963073 -5.55112e-17
709 1 138.8 37.2618 -5.55112e-17
710 2 16.9751 130.303 -5.55112e-17
711 2 32.7358 67.3922 -5.55112e-17
712 1 65.9961 16.613 -5.55112e-17
713 1 41.5484 106.014 -5.55112e-17
714 2 185.892 167.61 -5.55112e-17
715 2 125.207 112.958 -5.55112e-17
716 1 130.972 24.1219 -5.55112e-17
717 1 209.704 187.832 -5.55112e-17
718 2 191.809 187.562 -5.55112e-17
719 1 16.6561 21.0636 -5.55112e-17
720 2 67.5434 2.98379 -5.55112e-17
721 2 22.0799 155.532 -5.55112e-17
722 2 211.152 150.22 -5.55112e-17
723 2 190.473 161.25 -5.55112e-17
724 2 147.484 11.2568 -5.55112e-17
725 2 170.572 41.0005 -5.55112e-17
726 2 44.07 205.131 -5.55112e-17
727 2 208.274 55.5167 -5.55112e-17
728 1 93.0299 218.934 -5.55112e-17
729 2 82.0034 70.9261 -5.55112e-17
730 2 161.29 150.328 -5.55112e-17
731 1 115.541 113.489 -5.55112e-17
732 2 209.315 119.723 -5.55112e-17
733 2 123.622 78.5514 -5.55112e-17
734 2 46.7462 201.283 -5.55112e-17
735 2 146.776 21.8306 -5.55112e-17
736 1 138.337 192.198 -5.55112e-17
737 2 35.3954 32.3635 -5.55112e-17
738 2 112.326 56.8272 -5.55112e-17
739 2 3.89146 87.0158 -5.55112e-17
740 2 179.171 144.872 -5.55112e-17
741 2 187.447 204.743 -5.55112e-17
742 1 29.1798 40.6077 -5.55112e-17
743 2 44.663 3.79371 -5.55112e-17
744 1 158.5 157.871 -5.55112e-17
745 2 55.448 167.4 -5.55112e-17
746 1 158.548 204.9 -5.55112e-17
747 1 186.897 78.8745 -5.55112e-17
748 2 190.835 85.2656 -5.55112e-17
749 1 38.6532 21.884 -5.55112e-17
750 1 50.9574 139.815 -5.55112e-17
751 1 195.051 156.168 -5.55112e-17
752 2 173.529 106.816 -5.55112e-17
753 1 200.704 29.3816 -5.55112e-17
754 2 178.249 167.536 -5.55112e-17
755 1 81.406 134.387 -5.55112e-17
756 2 160.695 124.79 -5.55112e-17
757 1 99.8019 106.627 -5.55112e-17
758 2 100.237 101.761 -5.55112e-17
759 1 107.602 19.2071 -5.55112e-17
760 1 90.9616 108.867 -5.55112e-17
761 2 52.1294 31.3506 -5.55112e-17
762 1 202.248 96.5973 -5.55112e-17
763 2 58.0461 153.897 -5.55112e-17
764 2 18.6246 14.2963 -5.55112e-17
765 1 36.5978 204.625 -5.55112e-17
766 2 211.603 135.613 -5.55112e-17
767 2 110.486 149.267 -5.55112e-17
768 2 74.7906 80.131 -5.55112e-17
769 2 7.94306 52.6456 -5.55112e-17
770 1 41.1483 198.657 -5.55112e-17
771 1 29.2498 128.424 -5.55112e-17
772 1 198.817 158.078 -5.55112e-17
773 2 93.7097 113.576 -5.55112e-17
774 1 8.31736 190.332 -5.55112e-17
775 1 122.218 76.4488 -5.55112e-17
776 2 130.143 146.356 -5.55112e-17
777 2 185.55 140.726 -5.55112e-17
778 1 190.319 200.801 -5.55112e-17
779 1 187.709 202.012 -5.55112e-17
780 2 166.174 23.1009 -5.55112e-17
781 1 159.855 127.002 -5.55112e-17
782 2 128.937 82.0264 -5.55112e-17
783 1 168.071 192.286 -5.55112e-17
784 2 4.31188 116.837 -5.55112e-17
785 1 72.0106 12.3658 -5.55112e-17
786 1 158.432 133.193 -5.55112e-17
787 2 8.85518 204.498 -5.55112e-17
788 2 88.9943 133.285 -5.55112e-17
789 2 8.27579 8.22062 -5.55112e-17
790 2 111.649 190.941 -5.55112e-17
791 2 187.402 26.8939 -5.55112e-17
792 1 166.109 211.232 -5.55112e-17
793 1 61.7102 209.457 -5.55112e-17
794 2 24.337 2.55392 -5.55112e-17
795 2 17.1489 210.389 -5.55112e-17
796 1 43.1422 17.5091 -5.55112e-17
797 1 170.276 97.2671 -5.55112e-17
798 1 97.5181 73.3253 -5.55112e-17
799 2 26.3672 165.538 -5.55112e-17
800 1 215.512 177.795 -5.55112e-17
801 2 4.39148 10.8972 -5.55112e-17
802 1 136.626 120.299 -5.55112e-17
803 1 17.5742 183.361 -5.55112e-17
804 1 182.321 173.809 -5.55112e-17
805 2 67.2454 175.651 -5.55112e-17
806 2 125.603 98.2386 -5.55112e-17
807 2 52.9549 1.47672 -5.55112e-17
808 2 82.9312 213.26 -5.55112e-17
809 1 93.9676 86.4936 -5.55112e-17
810 2 6.623 98.2664 -5.55112e-17
811 2 58.653 95.814 -5.55112e-17
812 1 15.5894 144.178 -5.55112e-17
813 1 77.7657 180.147 -5.55112e-17
814 1 141.826 156.875 -5.55112e-17
815 1 96.7901 169.808 -5.55112e-17
816 1 155.404 213.116 -5.55112e-17
817 2 31.8203 9.04238 -5.55112e-17
818 2 142.226 5.19351 -5.55112e-17
819 2 135.146 55.4557 -5.55112e-17
820 1 9.45469 173.493 -5.55112e-17
821 1 188.529 211.406 -5.55112e-17
822 2 86.9694 126.171 -5.55112e-17
823 1 217.419 73.4572 -5.55112e-17
824 1 1.19778 194.585 -5.55112e-17
825 1 80.2499 138.581 -5.55112e-17
826 2 140.111 27.2324 -5.55112e-17
827 2 179.312 63.0685 -5.55112e-17
828 1 216.463 188.607 -5.55112e-17
829 2 34.9324 197.426 -5.55112e-17
830 1 87.1017 86.9821 -5.55112e-17
831 2 175.877 80.9799 -5.55112e-17
832 2 41.5399 90.3555 -5.55112e-17
833 2 80.5264 7.38592 -5.55112e-17
834 1 146.315 43.3202 -5.55112e-17
835 1 91.1559 210.077 -5.55112e-17
836 1 215.814 123.135 -5.55112e-17
837 2 184.948 174.651 -5.55112e-17
838 2 96.3304 71.1134 -5.55112e-17
839 1 63.3816 0.92118 -5.55112e-17
840 2 180.257 150.283 -5.55112e-17
841 2 12.7575 65.3718 -5.55112e-17
842 1 181.526 171.301 -5.55112e-17
843 1 75.0616 163.418 -5.55112e-17
844 2 88.5915 11.9707 -5.55112e-17
845 1 214.985 210.374 -5.55112e-17
846 2 2.17423 57.3958 -5.55112e-17
847 1 54.8448 120.276 -5.55112e-17
848 2 89.4703 197.373 -5.55112e-17
849 1 210.177 133.456 -5.55112e-17
850 2 40.3327 183.472 -5.55112e-17
851 2 204.373 49.9503 -5.55112e-17
852 1 76.0969 93.5041 -5.55112e-17
853 1 20.1613 46.0963 -5.55112e-17
854 2 70.5461 52.1184 -5.55112e-17
855 2 40.4775 65.5811 -5.55112e-17
856 1 11.2663 8.07773 -5.55112e-17