ITEM: TIMESTEP
0
ITEM: NUMBER OF ATOMS
7200
ITEM: BOX BOUNDS xy xz yz pp pp pp
0.0000000000000000e+00 2.1900000000000000e+02 0.0000000000000000e+00
0.0000000000000000e+00 2.1900000000000000e+02 0.0000000000000000e+00
-3.6499999999999999e-01 3.6499999999999999e-01 0.0000000000000000e+00
ITEM: ATOMS id type x y z
1 1 33.3651 12.6972 -5.55112e-17
2 2 176.927 92.8977 -5.55112e-17
3 2 137.317 24.2968 -5.55112e-17
4 1 83.0438 80.001 -5.55112e-17
5 1 6.4095 147.134 -5.55112e-17
6 1 165.906 118.334 -5.55112e-17
7 2 1.22673 106.547 -5.55112e-17
8 2 112.486 48.278 -5.55112e-17
9 1 94.0818 47.6602 -5.55112e-17
10 2 136.616 201.108 -5.55112e-17
11 2 185.968 159.922 -5.55112e-17
12 1 134.674 7.91467 -5.55112e-17
13 2 124.692 53.172 -5.55112e-17
14 1 169.799 87.114 -5.55112e-17
15 2 23.9722 212.941 -5.55112e-17
16 2 22.2861 84.5991 -5.55112e-17
17 1 198.247 32.6072 -5.55112e-17
18 2 77.2931 201.236 -5.55112e-17
19 1 96.4864 162.116 -5.55112e-17
20 1 129.858 49.6023 -5.55112e-17
21 1 42.7096 99.0891 -5.55112e-17
22 2 55.3531 147.589 -5.55112e-17
23 2 106.694 54.6691 -5.55112e-17
24 2 214.69 72.1174 -5.55112e-17
25 2 150.172 212.263 -5.55112e-17
26 2 11.3297 187.988 -5.55112e-17
27 1 36.7214 50.8203 -5.55112e-17
28 2 215.152 177.18 -5.55112e-17
29 2 55.9755 158.858 -5.55112e-17
30 2 153.832 99.5628 -5.55112e-17
31 2 145.603 50.0734 -5.55112e-17
32 1 91.6124 111.13 -5.55112e-17
33 2 155.655 214.852 -5.55112e-17
34 2 116.167 130.854 -5.55112e-17
35 2 172.988 137.131 -5.55112e-17
36 1 128.108 68.0719 -5.55112e-17
37 1 174.955 142.177 -5.55112e-17
38 2 31.0328 167.115 -5.55112e-17
39 1 163.115 211.791 -5.55112e-17
40 2 6.08452 43.8362 -5.55112e-17
41 1 5.79773 154.553 -5.55112e-17
42 1 85.1823 201.592 -5.55112e-17
43 1 32.1728 197.544 -5.55112e-17
44 1 187.882 191.799 -5.55112e-17
45 2 109.936 163.46 -5.55112e-17
46 1 123.451 59.992 -5.55112e-17
47 2 206.58 61.6123 -5.55112e-17
48 2 145.84 166.582 -5.55112e-17
49 1 127.842 209.452 -5.55112e-17
50 2 59.6732 187.439 -5.55112e-17
51 1 130.767 71.4264 -5.55112e-17
52 1 36.2022 84.5522 -5.55112e-17
53 2 43.7293 45.7914 -5.55112e-17
54 1 147.96 163.648 -5.55112e-17
55 2 141.493 100.147 -5.55112e-17
56 1 67.4408 79.0687 -5.55112e-17
57 2 7.75315 152.549 -5.55112e-17
58 1 217.659 105.759 -5.55112e-17
59 1 4.18069 81.6543 -5.55112e-17
60 2 186.752 129.68 -5.55112e-17
61 1 20.8252 47.9802 -5.55112e-17
62 1 80.2141 17.9998 -5.55112e-17
63 2 206.667 165.949 -5.55112e-17
64 1 123.222 105.581 -5.55112e-17
65 2 139.544 18.4096 -5.55112e-17
66 2 69.7008 46.8808 -5.55112e-17
67 2 116.213 30.7069 -5.55112e-17
68 1 201.637 79.0319 -5.55112e-17
69 2 165.139 175.096 -5.55112e-17
70 1 150.3 202.141 -5.55112e-17
71 1 146.466 190.018 -5.55112e-17
72 2 143.856 172.064 -5.55112e-17
73 2 173.128 178.805 -5.55112e-17
74 2 109.351 86.7526 -5.55112e-17
75 1 39.1029 51.024 -5.55112e-17
76 2 205.48 207.721 -5.55112e-17
77 2 194.676 147.309 -5.55112e-17
78 1 57.9914 203.744 -5.55112e-17
79 2 62.8071 211.972 -5.55112e-17
80 1 180.943 28.6587 -5.55112e-17
81 1 165.122 218.625 -5.55112e-17
82 1 44.9635 35.9322 -5.55112e-17
83 1 161.274 201.924 -5.55112e-17
84 2 9.85301 91.4512 -5.55112e-17
85 2 175.937 48.9401 -5.55112e-17
86 2 123.962 156.013 -5.55112e-17
87 2 33.3517 85.3558 -5.55112e-17
88 1 28.8984 168.583 -5.55112e-17
89 2 22.6212 188.108 -5.55112e-17
90 2 37.3639 135.189 -5.55112e-17
91 2 50.2271 118.471 -5.55112e-17
92 1 164.532 195.04 -5.55112e-17
93 2 47.2454 126.611 -5.55112e-17
94 2 102.559 161.212 -5.55112e-17
95 1 199.557 91.4261 -5.55112e-17
96 2 57.9091 184.923 -5.55112e-17
97 2 113.156 40.4993 -5.55112e-17
98 2 45.2638 191.795 -5.55112e-17
99 1 5.02001 112.184 -5.55112e-17
100 2 144.657 45.3643 -5.55112e-17
101 1 162.814 1.25365 -5.55112e-17
102 1 210.678 53.1207 -5.55112e-17
103 2 157.644 138.577 -5.55112e-17
104 2 83.8471 193.044 -5.55112e-17
105 1 119.371 35.3503 -5.55112e-17
106 1 80.9596 49.5257 -5.55112e-17
107 1 123.374 150.469 -5.55112e-17
108 1 134.997 51.2582 -5.55112e-17
109 2 57.2346 27.0432 -5.55112e-17
110 2 215.343 172.323 -5.55112e-17
111 1 157.721 146.145 -5.55112e-17
112 2 60.8358 43.3549 -5.55112e-17
113 1 47.9272 69.8069 -5.55112e-17
114 1 206.125 194.496 -5.55112e-17
115 2 27.6933 144.928 -5.55112e-17
116 2 32.8759 180.054 -5.55112e-17
117 1 106.014 106.788 -5.55112e-17
118 1 187.668 36.6882 -5.55112e-17
119 2 26.9064 136.545 -5.55112e-17
120 2 110.831 209.331 -5.55112e-17
121 1 29.3879 62.3979 -5.55112e-17
122 2 2.83252 210.305 -5.55112e-17
123 2 153.637 25.9165 -5.55112e-17
124 1 141.289 152.019 -5.55112e-17
125 1 89.1274 19.7439 -5.55112e-17
126 2 96.5524 35.5827 -5.55112e-17
127 2 124.534 128.067 -5.55112e-17
128 1 43.0392 64.4393 -5.55112e-17
129 1 77.1546 110.363 -5.55112e-17
130 2 155.512 23.8265 -5.55112e-17
131 1 173.241 161.51 -5.55112e-17
132 1 63.0577 80.83 -5.55112e-17
133 1 44.0314 57.938 -5.55112e-17
134 1 95.5758 38.0626 -5.55112e-17
135 2 101.716 36.0141 -5.55112e-17
136 1 141.563 38.8223 -5.55112e-17
137 1 152.806 173.422 -5.55112e-17
138 2 155.001 6.87494 -5.55112e-17
139 1 155.517 107.636 -5.55112e-17
140 1 215.261 79.8653 -5.55112e-17
141 1 139.608 193.696 -5.55112e-17
142 1 33.6356 58.0611 -5.55112e-17
143 1 97.1631 134.911 -5.55112e-17
144 1 202.896 138.114 -5.55112e-17
145 2 43.3288 148.736 -5.55112e-17
146 1 30.5852 81.5941 -5.55112e-17
147 2 62.8853 198.215 -5.55112e-17
148 1 99.9845 80.2165 -5.55112e-17
149 1 193.498 41.15 -5.55112e-17
150 2 197.617 99.1388 -5.55112e-17
151 1 203.453 135.571 -5.55112e-17
152 1 91.2042 179.258 -5.55112e-17
153 2 163.105 48.9737 -5.55112e-17
154 1 11.0273 42.085 -5.55112e-17
155 2 163.44 206.005 -5.55112e-17
156 2 126.833 157.426 -5.55112e-17
157 2 45.4694 187.114 -5.55112e-17
158 2 195.725 182.035 -5.55112e-17
159 2 57.247 144.13 -5.55112e-17
160 2 85.6763 12.8131 -5.55112e-17
161 2 69.9637 79.3019 -5.55112e-17
162 1 145.277 42.8168 -5.55112e-17
163 1 176.315 157.528 -5.55112e-17
164 2 27.7173 42.3551 -5.55112e-17
165 1 115.831 107.456 -5.55112e-17
166 2 115.384 115.691 -5.55112e-17
167 1 152.604 122.026 -5.55112e-17
168 1 43.3539 118.323 -5.55112e-17
169 2 202.298 203.951 -5.55112e-17
170 1 132.105 7.91533 -5.55112e-17
171 1 167.724 174.968 -5.55112e-17
172 1 104.234 11.4882 -5.55112e-17
173 1 48.6249 211.134 -5.55112e-17
174 2 17.3091 13.7136 -5.55112e-17
175 2 112.508 87.046 -5.55112e-17
176 1 44.6271 140.706 -5.55112e-17
177 2 29.1097 11.7756 -5.55112e-17
178 1 96.4254 23.8437 -5.55112e-17
179 2 207.064 66.571 -5.55112e-17
180 1 209.237 61.3458 -5.55112e-17
181 1 205.832 168.424 -5.55112e-17
182 1 47.7609 19.749 -5.55112e-17
183 1 168.254 155.986 -5.55112e-17
184 2 58.0297 131.624 -5.55112e-17
185 2 187.152 201.123 -5.55112e-17
186 2 106.339 202.26 -5.55112e-17
187 2 207.308 40.8473 -5.55112e-17
188 2 197.371 194.384 -5.55112e-17
189 1 182.483 108.006 -5.55112e-17
190 1 103.714 168.317 -5.55112e-17
191 2 92.7791 144.345 -5.55112e-17
192 2 121.313 72.9607 -5.55112e-17
193 1 187.324 208.003 -5.55112e-17
194 1 189.552 208.411 -5.55112e-17
195 2 117.635 206.436 -5.55112e-17
196 1 163.732 143.237 -5.55112e-17
197 2 135.954 123.327 -5.55112e-17
198 2 94.9873 2.04516 -5.55112e-17
199 2 191.357 85.4317 -5.55112e-17
200 2 44.0146 199.769 -5.55112e-17
201 2 113.96 0.339807 -5.55112e-17
202 1 53.2845 135.399 -5.55112e-17
203 1 168.669 36.6089 -5.55112e-17
204 2 176.936 96.0131 -5.55112e-17
205 2 121.413 133.246 -5.55112e-17
206 2 136.819 63.3234 -5.55112e-17
207 1 108.879 5.23296 -5.55112e-17
208 2 100.578 93.587 -5.55112e-17
209 2 35.2923 217.508 -5.55112e-17
210 1 99.137 165.16 -5.55112e-17
211 1 131.754 145.875 -5.55112e-17
212 1 52.6089 173.176 -5.55112e-17
213 1 202.393 67.7802 -5.55112e-17
214 2 133.463 118.674 -5.55112e-17
215 1 31.1953 154.5 -5.55112e-17
216 1 19.0299 69.914 -5.55112e-17
217 1 12.6074 66.8589 -5.55112e-17
218 2 132.381 67.1413 -5.55112e-17
219 2 68.364 81.6972 -5.55112e-17
220 1 134.148 62.704 -5.55112e-17
221 2 78.5383 2.91217 -5.55112e-17
222 1 197.195 76.9514 -5.55112e-17
223 1 185.946 209.608 -5.55112e-17
224 2 146.187 60.8694 -5.55112e-17
225 2 37.1628 94.7237 -5.55112e-17
226 1 145.616 115.072 -5.55112e-17
227 2 95.1748 77.5249 -5.55112e-17
228 2 10.2829 151.242 -5.55112e-17
229 1 20.3548 162.562 -5.55112e-17
230 1 188.378 210.559 -5.55112e-17
231 2 140.441 103.754 -5.55112e-17
232 1 103.29 165.792 -5.55112e-17
233 2 106.858 178.188 -5.55112e-17
234 1 180.579 56.1307 -5.55112e-17
235 1 55.0015 151.478 -5.55112e-17
236 2 100.157 39.637 -5.55112e-17
237 2 130.34 201.705 -5.55112e-17
238 2 138.336 28.5689 -5.55112e-17
239 1 116.247 62.8745 -5.55112e-17
240 1 3.59461 192.333 -5.55112e-17
241 2 183.515 56.1566 -5.55112e-17
242 1 63.224 3.80289 -5.55112e-17
243 2 52.7894 119.215 -5.55112e-17
244 2 215.976 157.684 -5.55112e-17
245 1 2.25971 143.514 -5.55112e-17
246 2 132.15 90.2022 -5.55112e-17
247 2 167.736 47.1881 -5.55112e-17
248 1 204.328 128.265 -5.55112e-17
249 1 127.013 127.122 -5.55112e-17
250 1 33.1338 70.4587 -5.55112e-17
251 2 146.125 132.348 -5.55112e-17
252 1 172.587 44.7796 -5.55112e-17
253 2 149.859 181.562 -5.55112e-17
254 2 175.693 56.7008 -5.55112e-17
255 2 53.521 16.6895 -5.55112e-17
256 1 24.2455 39.4322 -5.55112e-17
257 2 202.376 218.618 -5.55112e-17
258 1 142.916 3.43393 -5.55112e-17
259 2 183.065 85.2791 -5.55112e-17
260 1 33.0899 140.977 -5.55112e-17
261 2 182.522 65.5034 -5.55112e-17
262 2 74.3046 210.559 -5.55112e-17
263 2 147.162 66.1676 -5.55112e-17
264 1 121.267 155.468 -5.55112e-17
265 1 1.92053 127.553 -5.55112e-17
266 1 175.098 86.8394 -5.55112e-17
267 2 128.238 70.7113 -5.55112e-17
268 1 39.7986 177.687 -5.55112e-17
269 2 117.58 187.118 -5.55112e-17
270 2 62.2638 35.7813 -5.55112e-17
271 2 208.625 19.3261 -5.55112e-17
272 1 117.1 11.975 -5.55112e-17
273 1 213.999 149.228 -5.55112e-17
274 1 212.461 70.76 -5.55112e-17
275 1 75.3531 5.53361 -5.55112e-17
276 1 178.21 199.742 -5.55112e-17
277 1 188.565 83.6487 -5.55112e-17
278 2 81.4834 133.794 -5.55112e-17
279 2 109.257 201.809 -5.55112e-17
280 1 162.347 22.9351 -5.55112e-17
281 2 188.221 140.43 -5.55112e-17
282 2 0.604501 100.426 -5.55112e-17
283 2 75.1881 142.457 -5.55112e-17
284 1 25.4181 89.6999 -5.55112e-17
285 1 41.9719 19.6802 -5.55112e-17
286 2 74.2927 165.515 -5.55112e-17
287 2 132.71 214.64 -5.55112e-17
288 1 26.2347 196.975 -5.55112e-17
289 2 145.406 19.5653 -5.55112e-17
290 1 14.1597 196.325 -5.55112e-17
291 2 94.8757 107.944 -5.55112e-17
292 1 20.402 52.7526 -5.55112e-17
293 1 217.89 80.1414 -5.55112e-17
294 1 157.504 22.0752 -5.55112e-17
295 2 59.775 171.493 -5.55112e-17
296 1 19.236 41.7405 -5.55112e-17
297 1 53.7639 99.4078 -5.55112e-17
298 2 207.74 159.36 -5.55112e-17
299 1 110.892 122.103 -5.55112e-17
300 2 121.046 183.053 -5.55112e-17
301 2 6.48554 89.4699 -5.55112e-17
302 2 180.583 154.754 -5.55112e-17
303 1 213.966 179.765 -5.55112e-17
304 1 138.84 101.744 -5.55112e-17
305 1 108.087 125.332 -5.55112e-17
306 2 185.306 44.1208 -5.55112e-17
307 2 170.103 110.107 -5.55112e-17
308 2 181.27 214.7 -5.55112e-17
309 1 109.423 28.0537 -5.55112e-17
310 1 168.36 197.935 -5.55112e-17
311 1 32.5975 66.3151 -5.55112e-17
312 2 146.832 161.336 -5.55112e-17
313 2 121.832 194.845 -5.55112e-17
314 1 148 31.2113 -5.55112e-17
315 2 183.204 73.3588 -5.55112e-17
316 1 106.766 108.694 -5.55112e-17
317 1 69.1795 174.266 -5.55112e-17
318 1 197.964 96.1776 -5.55112e-17
319 2 80.9526 25.138 -5.55112e-17
320 1 206.524 120.295 -5.55112e-17
321 1 153.165 0.16994 -5.55112e-17
322 1 127.58 6.16591 -5.55112e-17
323 2 196.992 17.7576 -5.55112e-17
324 2 149.866 161.96 -5.55112e-17
325 2 152.737 146.052 -5.55112e-17
326 1 141.804 215.541 -5.55112e-17
327 1 175.597 131.788 -5.55112e-17
328 2 20.2867 170.423 -5.55112e-17
329 2 77.0951 209.763 -5.55112e-17
330 2 128.264 192.475 -5.55112e-17
331 2 147.894 75.9564 -5.55112e-17
332 2 140.103 67.0832 -5.55112e-17
333 2 113.122 174.549 -5.55112e-17
334 2 182.488 44.0035 -5.55112e-17
335 1 127.2 99.5373 -5.55112e-17
336 2 155.174 121.06 -5.55112e-17
337 2 85.2866 91.8947 -5.55112e-17
338 1 93.5456 184.309 -5.55112e-17
339 2 125.827 139.072 -5.55112e-17
340 2 19.7933 187.542 -5.55112e-17
341 2 17.8724 83.1614 -5.55112e-17
342 2 214.493 164.299 -5.55112e-17
343 2 176.768 201.781 -5.55112e-17
344 1 90.4745 10.202 -5.55112e-17
345 2 193.761 184.324 -5.55112e-17
346 2 207.166 162.89 -5.55112e-17
347 1 64.8437 176.152 -5.55112e-17
348 1 67.8067 68.0136 -5.55112e-17
349 2 37.3386 197.286 -5.55112e-17
350 2 94.0907 22.3729 -5.55112e-17
351 1 182.447 41.5373 -5.55112e-17
352 1 94.5908 155.283 -5.55112e-17
353 2 118.18 111.988 -5.55112e-17
354 2 89.8771 76.2051 -5.55112e-17
355 1 8.32689 80.0585 -5.55112e-17
356 2 17.077 138.421 -5.55112e-17
357 1 54.6548 137.231 -5.55112e-17
358 1 83.5551 188.357 -5.55112e-17
359 1 57.0628 94.0435 -5.55112e-17
360 1 38.0351 25.5519 -5.55112e-17
361 2 158.451 83.2913 -5.55112e-17
362 2 82.1936 16.5742 -5.55112e-17
363 1 124.667 91.155 -5.55112e-17
364 2 36.4665 63.0438 -5.55112e-17
365 1 84.7608 63.6439 -5.55112e-17
366 1 14.5229 182.623 -5.55112e-17
367 1 42.0826 217.572 -5.55112e-17
368 1 104.328 1.69772 -5.55112e-17
369 2 150.27 88.4754 -5.55112e-17
370 1 171.24 77.241 -5.55112e-17
371 2 144.082 208.168 -5.55112e-17
372 1 22.8163 133.957 -5.55112e-17
373 2 159.121 76.0489 -5.55112e-17
374 2 193.826 131.682 -5.55112e-17
375 1 173.257 124.214 -5.55112e-17
376 1 52.1995 188.837 -5.55112e-17
377 2 187.697 70.7309 -5.55112e-17
378 2 93.0142 200.949 -5.55112e-17
379 2 68.0143 91.8707 -5.55112e-17
380 1 97.8166 38.8273 -5.55112e-17
381 1 15.5594 54.4576 -5.55112e-17
382 1 192.679 77.7734 -5.55112e-17
383 1 89.8691 98.435 -5.55112e-17
384 2 167.706 89.4075 -5.55112e-17
385 1 41.6564 143.92 -5.55112e-17
386 2 28.5833 18.3491 -5.55112e-17
387 1 114.622 206.87 -5.55112e-17
388 1 208.366 105.907 -5.55112e-17
389 2 6.83239 198.777 -5.55112e-17
390 1 13.5678 218.207 -5.55112e-17
391 1 93.3568 65.1932 -5.55112e-17
392 2 138.747 210.668 -5.55112e-17
393 2 193.369 51.1166 -5.55112e-17
394 1 205.602 33.3593 -5.55112e-17
395 1 199.807 67.1948 -5.55112e-17
396 2 20.7188 77.2819 -5.55112e-17
397 1 166.329 17.4333 -5.55112e-17
398 2 203.171 21.5876 -5.55112e-17
399 2 99.3653 1.71134 -5.55112e-17
400 2 211.31 99.813 -5.55112e-17
401 2 61.2819 0.27697 -5.55112e-17
402 1 187.766 172.353 -5.55112e-17
403 1 108.741 165.603 -5.55112e-17
404 2 170.409 177.534 -5.55112e-17
405 1 160.057 140.969 -5.55112e-17
406 2 96.4895 188.137 -5.55112e-17
407 1 57.2631 39.5575 -5.55112e-17
408 1 150.807 76.7048 -5.55112e-17
409 2 171.24 193.409 -5.55112e-17
410 2 183.587 155.109 -5.55112e-17
411 1 97.0345 51.5434 -5.55112e-17
412 1 65.5517 190.742 -5.55112e-17
413 1 79.9567 72.7581 -5.55112e-17
414 2 110.201 144.714 -5.55112e-17
415 1 22.1678 160.91 -5.55112e-17
416 1 37.4104 36.0057 -5.55112e-17
417 2 107.219 10.8844 -5.55112e-17
418 2 19.3201 121.985 -5.55112e-17
419 2 192.718 67.4088 -5.55112e-17
420 2 207.031 149.318 -5.55112e-17
421 1 92.0982 15.1889 -5.55112e-17
422 1 57.8081 189.335 -5.55112e-17
423 2 73.9817 125.825 -5.55112e-17
424 2 116.802 158.763 -5.55112e-17
425 2 107.348 158.027 -5.55112e-17
426 1 73.0994 181.768 -5.55112e-17
427 2 193.048 191.421 -5.55112e-17
428 1 186.964 138.021 -5.55112e-17
429 2 56.7133 8.73328 -5.55112e-17
430 2 121.071 205.801 -5.55112e-17
431 1 191.056 115.804 -5.55112e-17
432 2 70.2755 69.4932 -5.55112e-17
433 1 215.164 181.791 -5.55112e-17
434 1 25.2374 133.207 -5.55112e-17
435 1 72.6851 50.7962 -5.55112e-17
436 2 83.3809 117.028 -5.55112e-17
437 2 186.983 7.49309 -5.55112e-17
438 2 149.279 159.195 -5.55112e-17
439 2 154.408 63.367 -5.55112e-17
440 2 94.7622 164.227 -5.55112e-17
441 1 218.647 75.8048 -5.55112e-17
442 1 167.898 116.755 -5.55112e-17
443 2 97.9897 182.166 -5.55112e-17
444 1 42.2204 26.4766 -5.55112e-17
445 1 172.9 191.609 -5.55112e-17
446 2 64.8173 31.1632 -5.55112e-17
447 2 58.461 60.7002 -5.55112e-17
448 2 70.1396 176.665 -5.55112e-17
449 1 23.2734 102.622 -5.55112e-17
450 1 140.696 205.555 -5.55112e-17
451 1 168.993 25.213 -5.55112e-17
452 2 59.6837 166.664 -5.55112e-17
453 1 161.245 197.374 -5.55112e-17
454 1 51.32 18.34 -5.55112e-17
455 2 115.535 4.94566 -5.55112e-17
456 1 141.182 29.6467 -5.55112e-17
457 2 141.729 210.435 -5.55112e-17
458 2 78.0431 79.2347 -5.55112e-17
459 2 169.115 54.6152 -5.55112e-17
460 1 102.193 169.776 -5.55112e-17
461 1 89.8917 73.6091 -5.55112e-17
462 1 188.319 127.85 -5.55112e-17
463 2 61.4701 164.02 -5.55112e-17
464 2 93.4273 10.7935 -5.55112e-17
465 1 78.6262 86.9151 -5.55112e-17
466 2 21.4642 142.024 -5.55112e-17
467 2 43.6059 189.642 -5.55112e-17
468 2 155.866 101.65 -5.55112e-17
469 2 1.48171 136.167 -5.55112e-17
470 2 170.466 196.237 -5.55112e-17
471 2 195.738 20.4561 -5.55112e-17
472 2 157.924 5.78644 -5.55112e-17
473 2 134.166 138.576 -5.55112e-17
474 2 12.3388 89.3223 -5.55112e-17
475 1 159.587 127.154 -5.55112e-17
476 2 152.363 119.267 -5.55112e-17
477 1 199.084 8.38639 -5.55112e-17
478 1 124.137 168.122 -5.55112e-17
479 2 70.4466 19.3694 -5.55112e-17
480 1 133.459 43.4366 -5.55112e-17
481 1 161.012 92.6864 -5.55112e-17
482 2 99.482 68.5715 -5.55112e-17
483 1 22.9847 90.0109 -5.55112e-17
484 1 117.197 70.2213 -5.55112e-17
485 2 15.9825 213.435 -5.55112e-17
486 1 45.4718 65.6187 -5.55112e-17
487 1 189.644 2.84829 -5.55112e-17
488 1 218.46 203.774 -5.55112e-17
489 1 57.3817 166.046 -5.55112e-17
490 1 67.5004 171.795 -5.55112e-17
491 1 90.2005 121.503 -5.55112e-17
492 2 190.17 7.28697 -5.55112e-17
493 1 143.385 29.0082 -5.55112e-17
494 2 12.0085 98.1332 -5.55112e-17
495 1 126.294 30.4682 -5.55112e-17
496 1 30.393 175.773 -5.55112e-17
497 1 196.668 199.643 -5.55112e-17
498 2 122.545 55.4467 -5.55112e-17
499 2 141.976 15.5971 -5.55112e-17
500 2 43.1635 55.5074 -5.55112e-17
501 2 79.8897 123.068 -5.55112e-17
502 2 127.544 51.9779 -5.55112e-17
503 2 146.657 78.555 -5.55112e-17
504 2 18.9839 87.9209 -5.55112e-17
505 2 167.724 67.3785 -5.55112e-17
506 1 215.288 37.1535 -5.55112e-17
507 2 160.357 154.338 -5.55112e-17
508 1 119.878 44.9486 -5.55112e-17
509 1 59.8753 69.5636 -5.55112e-17
510 1 4.2709 63.2774 -5.55112e-17
511 2 157.706 200.757 -5.55112e-17
512 1 5.97247 64.9497 -5.55112e-17
513 2 67.9947 25.7148 -5.55112e-17
514 2 159.332 148.522 -5.55112e-17
515 1 64.8988 121.344 -5.55112e-17
516 2 152.503 32.4025 -5.55112e-17
517 1 79.3176 32.4407 -5.55112e-17
518 2 106.72 120.089 -5.55112e-17
519 1 128.818 182.084 -5.55112e-17
520 2 7.37285 149.859 -5.55112e-17
521 2 115.642 196.248 -5.55112e-17
522 1 205.965 157.78 -5.55112e-17
523 1 85.1064 0.379952 -5.55112e-17
524 2 117.691 81.8479 -5.55112e-17
525 2 70.6546 181.235 -5.55112e-17
526 2 34.0564 165.939 -5.55112e-17
527 1 2.28428 102.383 -5.55112e-17
528 1 151.8 166.795 -5.55112e-17
529 2 55.7246 134.114 -5.55112e-17
530 2 41.4017 62.4328 -5.55112e-17
531 2 181.614 188.227 -5.55112e-17
532 1 175.555 161.832 -5.55112e-17
533 2 203.375 193.619 -5.55112e-17
534 1 159.559 193.137 -5.55112e-17
535 1 203.613 206.043 -5.55112e-17
536 2 106.902 78.3567 -5.55112e-17
537 1 200.098 37.8375 -5.55112e-17
538 1 37.04 187.674 -5.55112e-17
539 2 105.723 208.117 -5.55112e-17
540 1 104.115 178.258 -5.55112e-17
541 1 39.2238 108.355 -5.55112e-17
542 1 8.17523 111.474 -5.55112e-17
543 2 58.5331 134.411 -5.55112e-17
544 1 136.283 195.485 -5.55112e-17
545 1 14.0963 87.4059 -5.55112e-17
546 2 136.77 17.4991 -5.55112e-17
547 1 114.983 16.4385 -5.55112e-17
548 1 105.564 98.4055 -5.55112e-17
549 2 11.3781 9.32886 -5.55112e-17
550 2 81.8395 136.898 -5.55112e-17
551 2 59.2272 41.0938 -5.55112e-17
552 1 60.8285 105.077 -5.55112e-17
553 2 81.8189 190.393 -5.55112e-17
554 2 170.766 57.2019 -5.55112e-17
555 2 87.8736 26.9263 -5.55112e-17
556 1 195.587 165.044 -5.55112e-17
557 1 86.7867 32.2554 -5.55112e-17
558 1 145.073 210.879 -5.55112e-17
559 2 160.493 70.9796 -5.55112e-17
560 2 140.5 212.99 -5.55112e-17
561 2 23.2283 24.2934 -5.55112e-17
562 2 178.118 162.552 -5.55112e-17
563 1 138.773 26.0693 -5.55112e-17
564 2 4.74354 118.027 -5.55112e-17
565 2 46.0558 2.52138 -5.55112e-17
566 2 77.5703 34.5079 -5.55112e-17
567 1 143.267 43.2216 -5.55112e-17
568 1 86.1357 2.42471 -5.55112e-17
569 2 67.0167 35.6603 -5.55112e-17
570 2 58.7614 159.359 -5.55112e-17
571 2 163.7 124.995 -5.55112e-17
572 1 51.5933 61.6898 -5.55112e-17
573 2 68.0875 211.88 -5.55112e-17
574 2 180.476 51.3999 -5.55112e-17
575 1 153.389 155.931 -5.55112e-17
576 1 153.158 117.032 -5.55112e-17
577 1 5.14945 171.175 -5.55112e-17
578 1 58.794 173.977 -5.55112e-17
579 2 117.597 16.5035 -5.55112e-17
580 1 101.621 56.183 -5.55112e-17
581 1 18.5665 213.381 -5.55112e-17
582 2 56.9031 149.884 -5.55112e-17
583 2 71.4874 105.864 -5.55112e-17
584 2 216.846 179.731 -5.55112e-17
585 1 144.466 55.5545 -5.55112e-17
586 1 128.312 155.181 -5.55112e-17
587 1 36.5669 75.8756 -5.55112e-17
588 2 90.4653 34.4854 -5.55112e-17
589 1 164.019 36.8539 -5.55112e-17
590 2 7.38268 125.338 -5.55112e-17
591 2 113.628 53.6276 -5.55112e-17
592 1 101.45 109.908 -5.55112e-17
593 1 189.661 38.1386 -5.55112e-17
594 1 29.9468 25.4583 -5.55112e-17
595 1 25.7833 142.714 -5.55112e-17
596 2 12.8207 91.9294 -5.55112e-17
597 2 196.056 212.016 -5.55112e-17
598 2 39.388 123.855 -5.55112e-17
599 2 163.879 150.423 -5.55112e-17
600 2 16.1812 107.931 -5.55112e-17
601 1 151.542 197.33 -5.55112e-17
602 1 135.852 181.324 -5.55112e-17
603 2 111.524 51.241 -5.55112e-17
604 1 36.9607 130.413 -5.55112e-17
605 2 65.1639 170.828 -5.55112e-17
606 2 26.7862 39.3237 -5.55112e-17
607 2 75.0529 60.5683 -5.55112e-17
608 2 161.733 27.5454 -5.55112e-17
609 1 51.5001 31.2435 -5.55112e-17
610 2 110.943 12.46 -5.55112e-17
611 1 164.21 180.972 -5.55112e-17
612 1 201.891 118.069 -5.55112e-17
613 2 56.2294 212.733 -5.55112e-17
614 1 198.365 84.7632 -5.55112e-17
615 1 67.5174 142.048 -5.55112e-17
616 2 102.195 138.461 -5.55112e-17
617 1 183.552 87.6369 -5.55112e-17
618 1 29.3226 185.751 -5.55112e-17
619 1 150.587 206.577 -5.55112e-17
620 2 177.633 154.957 -5.55112e-17
621 2 163.156 11.0651 -5.55112e-17
622 2 22.5711 99.4901 -5.55112e-17
623 2 26.7664 174.192 -5.55112e-17
624 1 184.035 94.6653 -5.55112e-17
625 2 179.894 190.621 -5.55112e-17
626 1 58.7432 47.4897 -5.55112e-17
627 2 125.087 86.7031 -5.55112e-17
628 1 169.713 14.2266 -5.55112e-17
629 1 64.627 101.901 -5.55112e-17
630 2 67.5839 162.753 -5.55112e-17
631 2 51.906 47.4498 -5.55112e-17
632 2 97.3093 115.866 -5.55112e-17
633 2 193.254 123.776 -5.55112e-17
634 2 48.4541 206.483 -5.55112e-17
635 2 84.4352 129.427 -5.55112e-17
636 1 96.4365 87.0467 -5.55112e-17
637 1 143.388 167.591 -5.55112e-17
638 1 35.4028 73.4583 -5.55112e-17
639 2 77.6254 10.7786 -5.55112e-17
640 2 45.0425 20.0243 -5.55112e-17
641 1 88.0852 201.648 -5.55112e-17
642 2 63.7173 195.457 -5.55112e-17
643 1 162.651 3.51518 -5.55112e-17
644 2 148.506 108.973 -5.55112e-17
645 2 42.6833 22.6533 -5.55112e-17
646 1 50.0667 218.473 -5.55112e-17
647 2 216.509 111.643 -5.55112e-17
648 2 163.359 158.426 -5.55112e-17
649 1 29.7931 173.673 -5.55112e-17
650 1 122.904 68.4095 -5.55112e-17
651 1 200.352 188.304 -5.55112e-17
652 2 111.189 6.995 -5.55112e-17
653 2 134.001 102.154 -5.55112e-17
654 1 118.087 48.4784 -5.55112e-17
655 1 54.3321 47.133 -5.55112e-17
656 1 83.1381 13.9922 -5.55112e-17
657 1 46.8304 15.0622 -5.55112e-17
658 2 105.188 153.337 -5.55112e-17
659 2 115.57 101.564 -5.55112e-17
660 1 185.904 211.865 -5.55112e-17
661 2 72.985 48.3211 -5.55112e-17
662 2 69.8133 23.2396 -5.55112e-17
663 1 87.123 15.1479 -5.55112e-17
664 1 18.715 146.548 -5.55112e-17
665 1 215.483 154.956 -5.55112e-17
666 1 216.721 47.9423 -5.55112e-17
667 1 172.005 182.466 -5.55112e-17
668 1 56.2616 98.7873 -5.55112e-17
669 1 173.444 186.159 -5.55112e-17
670 2 183.076 0.169472 -5.55112e-17
671 1 26.3467 147.026 -5.55112e-17
672 1 39.4232 126.493 -5.55112e-17
673 2 196.885 169.476 -5.55112e-17
674 2 99.6758 139.927 -5.55112e-17
675 2 30.6929 161.63 -5.55112e-17
676 1 140.388 49.3453 -5.55112e-17
677 2 30.376 32.8379 -5.55112e-17
678 1 97.2015 72.8707 -5.55112e-17
679 1 0.227001 111.476 -5.55112e-17
680 2 97.1579 191.106 -5.55112e-17
681 1 18.3688 163.947 -5.55112e-17
682 1 148.988 197.104 -5.55112e-17
683 2 64.7007 154.652 -5.55112e-17
684 1 187.665 146.264 -5.55112e-17
685 1 183.293 60.2941 -5.55112e-17
686 1 66.7511 202.403 -5.55112e-17
687 1 12.7195 26.7147 -5.55112e-17
688 1 14.0804 203.645 -5.55112e-17
689 2 84.9267 7.29316 -5.55112e-17
690 1 96.6731 96.5127 -5.55112e-17
691 2 128.978 3.82528 -5.55112e-17
692 2 31.8813 56.5989 -5.55112e-17
693 1 54.3702 191.692 -5.55112e-17
694 2 25.5905 54.7117 -5.55112e-17
695 2 160.242 53.9719 -5.55112e-17
696 2 211.625 114.58 -5.55112e-17
697 1 20.099 150.198 -5.55112e-17
698 2 124.039 180.984 -5.55112e-17
699 1 49.4463 57.3877 -5.55112e-17
700 2 175.858 213.673 -5.55112e-17
701 2 6.97098 100.338 -5.55112e-17
702 1 174.804 59.8366 -5.55112e-17
703 1 154.455 112.669 -5.55112e-17
704 1 145.085 2.45982 -5.55112e-17
705 1 146.423 37.3695 -5.55112e-17
706 1 97.459 198.187 -5.55112e-17
707 1 38.0577 111.481 -5.55112e-17
708 2 39.75 157.209 -5.55112e-17
709 1 39.6887 145.19 -5.55112e-17
710 2 30.2288 120.462 -5.55112e-17
711 2 106.11 37.3862 -5.55112e-17
712 1 2.45857 61.7884 -5.55112e-17
713 1 195.253 46.5752 -5.55112e-17
714 2 45.6425 70.8077 -5.55112e-17
715 2 55.9612 5.1968 -5.55112e-17
716 1 84.1443 126.946 -5.55112e-17
717 1 41.1587 166.923 -5.55112e-17
718 2 206.8 141.374 -5.55112e-17
719 1 90.749 196.314 -5.55112e-17
720 2 23.0183 66.133 -5.55112e-17
721 2 202.077 145.8 -5.55112e-17
722 2 40.1158 87.1685 -5.55112e-17
723 2 10.4378 113.193 -5.55112e-17
724 2 165.444 213.331 -5.55112e-17
725 2 19.4527 176.459 -5.55112e-17
726 2 202.901 101.975 -5.55112e-17
727 2 64.8904 204.242 -5.55112e-17
728 1 104.197 4.16519 -5.55112e-17
729 2 58.8593 4.26041 -5.55112e-17
730 2 21.6445 10.3061 -5.55112e-17
731 1 68.6876 120.208 -5.55112e-17
732 2 21.7646 7.19339 -5.55112e-17
733 2 46.122 129.141 -5.55112e-17
734 2 165.433 104.105 -5.55112e-17
735 2 183.807 162.418 -5.55112e-17
736 1 170.458 121.175 -5.55112e-17
737 2 197.357 142.605 -5.55112e-17
738 2 38.8409 154.716 -5.55112e-17
739 2 69.3744 202.543 -5.55112e-17
740 2 198.73 129.437 -5.55112e-17
741 2 15.7607 194.428 -5.55112e-17
742 1 87.4632 162.255 -5.55112e-17
743 2 180.668 68.9815 -5.55112e-17
744 1 159.329 87.501 -5.55112e-17
745 2 159.189 179.883 -5.55112e-17
746 1 84.6469 122.679 -5.55112e-17
747 1 157.375 120.181 -5.55112e-17
748 2 177.632 192.216 -5.55112e-17
749 1 88.0827 60.9507 -5.55112e-17
750 1 49.5694 204.087 -5.55112e-17
751 1 17.8029 216.025 -5.55112e-17
752 2 33.9795 82.9652 -5.55112e-17
753 1 182.921 216.317 -5.55112e-17
754 2 149.887 209.188 -5.55112e-17
755 1 215.652 147.624 -5.55112e-17
756 2 121.597 157.98 -5.55112e-17
757 1 129.716 34.0431 -5.55112e-17
758 2 173.28 78.2904 -5.55112e-17
759 1 195.807 51.8525 -5.55112e-17
760 1 197.949 101.684 -5.55112e-17
761 2 32.0861 2.65133 -5.55112e-17
762 1 51.9946 51.7691 -5.55112e-17
763 2 191.411 109.478 -5.55112e-17
764 2 134.719 141.86 -5.55112e-17
765 1 184.541 201.158 -5.55112e-17
766 2 203.844 57.9723 -5.55112e-17
767 2 58.3122 218.174 -5.55112e-17
768 2 203.195 130.82 -5.55112e-17
769 2 189.69 23.9142 -5.55112e-17
770 1 55.0443 203.694 -5.55112e-17
771 1 136.811 151.071 -5.55112e-17
772 1 77.3402 72.2262 -5.55112e-17
773 2 3.44523 28.6825 -5.55112e-17
774 1 96.4568 194.075 -5.55112e-17
775 1 25.5761 183.231 -5.55112e-17
776 2 37.8515 151.853 -5.55112e-17
777 2 113.831 23.0218 -5.55112e-17
778 1 7.58079 41.3889 -5.55112e-17
779 1 62.3452 78.5346 -5.55112e-17
780 2 49.3152 2.07167 -5.55112e-17
781 1 146.35 171.901 -5.55112e-17
782 2 211.344 96.5328 -5.55112e-17
783 1 213.398 184.478 -5.55112e-17
784 2 37.8629 6.99964 -5.55112e-17
785 1 63.8726 165.402 -5.55112e-17
786 1 28.3354 142.242 -5.55112e-17
787 2 133.307 99.0336 -5.55112e-17
788 2 4.933 69.2947 -5.55112e-17
789 2 69.6076 193.954 -5.55112e-17
790 2 39.9349 102.644 -5.55112e-17
791 2 155.481 173.912 -5.55112e-17
792 1 48.9809 91.5923 -5.55112e-17
793 1 162.455 133.989 -5.55112e-17
794 2 148.648 85.867 -5.55112e-17
795 2 168.189 112.218 -5.55112e-17
796 1 10.7947 70.2077 -5.55112e-17
797 1 101.707 177.768 -5.55112e-17
798 1 160.379 73.8131 -5.55112e-17
799 2 14.4999 14.6818 -5.55112e-17
800 1 161.967 131.773 -5.55112e-17
801 2 111.745 138.265 -5.55112e-17
802 1 128.814 82.5286 -5.55112e-17
803 1 213.071 87.0539 -5.55112e-17
804 1 166.866 64.5943 -5.55112e-17
805 2 114.151 51.0257 -5.55112e-17
806 2 136.816 183.523 -5.55112e-17
807 2 127.951 217.49 -5.55112e-17
808 2 28.125 171.221 -5.55112e-17
809 1 10.3332 165.573 -5.55112e-17
810 2 168.251 123.251 -5.55112e-17
811 2 203.369 113.219 -5.55112e-17
812 1 189.169 157.715 -5.55112e-17
813 1 134.906 24.4574 -5.55112e-17
814 1 143.107 73.7426 -5.55112e-17
815 1 111.724 102.242 -5.55112e-17
816 1 126.37 72.7895 -5.55112e-17
817 2 30.2976 123.742 -5.55112e-17
818 2 116.278 104.271 -5.55112e-17
819 2 85.925 118.045 -5.55112e-17
820 1 87.394 158.331 -5.55112e-17
821 1 213.302 110.134 -5.55112e-17
822 2 115.959 162.728 -5.55112e-17
823 1 13.0054 34.1947 -5.55112e-17
824 1 97.3739 216.841 -5.55112e-17
825 1 181.605 103.538 -5.55112e-17
826 2 21.4289 104.627 -5.55112e-17
827 2 194.924 69.44 -5.55112e-17
828 1 36.7088 68.6343 -5.55112e-17
829 2 67.5236 95.0189 -5.55112e-17
830 1 174.578 95.1466 -5.55112e-17
831 2 11.2009 29.2359 -5.55112e-17
832 2 189.575 205.765 -5.55112e-17
833 2 202.069 177.111 -5.55112e-17
834 1 14.2211 71.5386 -5.55112e-17
835 1 196.573 188.658 -5.55112e-17
836 1 178.534 3.03869 -5.55112e-17
837 2 77.7586 59.5613 -5.55112e-17
838 2 109.341 218.78 -5.55112e-17
839 1 99.2322 19.1689 -5.55112e-17
840 2 187.511 62.1025 -5.55112e-17
841 2 87.0229 217.52 -5.55112e-17
842 1 133.925 28.5496 -5.55112e-17
843 1 85.6904 79.2544 -5.55112e-17
844 2 190.707 122.39 -5.55112e-17
845 1 196.339 184.398 -5.55112e-17
846 2 173.531 168.721 -5.55112e-17
847 1 98.8673 149.643 -5.55112e-17
848 2 199.358 116.442 -5.55112e-17
849 1 216.225 114.541 -5.55112e-17
850 2 46.1308 44.2453 -5.55112e-17
851 2 3.18444 1.97542 -5.55112e-17
852 1 212.919 33.9781 -5.55112e-17
853 1 144.725 4.84144 -5.55112e-17
854 2 38.2523 170.698 -5.55112e-17
855 2 51.5344 177.975 -5.55112e-17
856 1 96.9275 139.822 -5.55112e-17