ITEM: TIMESTEP
0
ITEM: NUMBER OF ATOMS
7200
ITEM: BOX BOUNDS xy xz yz pp pp pp
0.0000000000000000e+00 2.1900000000000000e+02 0.0000000000000000e+00
0.0000000000000000e+00 2.1900000000000000e+02 0.0000000000000000e+00
-3.6499999999999999e-01 3.6499999999999999e-01 0.0000000000000000e+00
ITEM: ATOMS id type x y z
1 1 173.685 36.1059 -5.55112e-17
2 2 181.045 198.602 -5.55112e-17
3 2 139.83 186.188 -5.55112e-17
4 1 118.275 106.716 -5.55112e-17
5 1 94.6445 126.534 -5.55112e-17
6 1 110.948 216.23 -5.55112e-17
7 2 188.393 144.042 -5.55112e-17
8 2 88.7373 9.27918 -5.55112e-17
9 1 34.8188 212.51 -5.55112e-17
10 2 46.7601 172.822 -5.55112e-17
11 2 215.025 101.271 -5.55112e-17
12 1 39.4357 186.586 -5.55112e-17
13 2 189.048 60.4234 -5.55112e-17
14 1 59.5833 175.785 -5.55112e-17
15 2 198.795 0.356935 -5.55112e-17
16 2 11.9281 97.7064 -5.55112e-17
17 1 72.5087 76.985 -5.55112e-17
18 2 13.4264 169.075 -5.55112e-17
19 1 89.6361 128.693 -5.55112e-17
20 1 59.2875 32.8186 -5.55112e-17
21 1 162.464 182.114 -5.55112e-17
22 2 42.5904 204.235 -5.55112e-17
23 2 10.9273 204.909 -5.55112e-17
24 2 13.5364 111.525 -5.55112e-17
25 2 218.087 194.504 -5.55112e-17
26 2 140.83 213.593 -5.55112e-17
27 1 1.18119 160.499 -5.55112e-17
28 2 50.7829 154.896 -5.55112e-17
29 2 104.956 16.0304 -5.55112e-17
30 2 134.15 30.322 -5.55112e-17
31 2 153.997 83.8475 -5.55112e-17
32 1 37.6707 129.854 -5.55112e-17
33 2 141.799 86.0861 -5.55112e-17
34 2 54.4672 99.0205 -5.55112e-17
35 2 115.795 36.5133 -5.55112e-17
36 1 160.357 153.832 -5.55112e-17
37 1 128.591 186.302 -5.55112e-17
38 2 215.213 155.351 -5.55112e-17
39 1 4.27857 43.4192 -5.55112e-17
40 2 199.659 98.8893 -5.55112e-17
41 1 186.736 72.4786 -5.55112e-17
42 1 86.0512 42.2605 -5.55112e-17
43 1 183.401 159.218 -5.55112e-17
44 1 158.895 185.136 -5.55112e-17
45 2 142.284 51.2304 -5.55112e-17
46 1 128.207 205.026 -5.55112e-17
47 2 118.024 44.7384 -5.55112e-17
48 2 163.055 109.968 -5.55112e-17
49 1 198.209 207.597 -5.55112e-17
50 2 37.9617 56.919 -5.55112e-17
51 1 177.523 10.056 -5.55112e-17
52 1 87.2074 52.6196 -5.55112e-17
53 2 85.0793 190.225 -5.55112e-17
54 1 47.5724 14.9366 -5.55112e-17
55 2 50.4055 142.043 -5.55112e-17
56 1 35.7626 131.418 -5.55112e-17
57 2 49.1787 129.892 -5.55112e-17
58 1 195.017 54.866 -5.55112e-17
59 1 154.992 86.2965 -5.55112e-17
60 2 203.431 79.3428 -5.55112e-17
61 1 150.83 160.633 -5.55112e-17
62 1 104.567 128.111 -5.55112e-17
63 2 98.1488 209.39 -5.55112e-17
64 1 30.5782 40.7113 -5.55112e-17
65 2 159.397 121.273 -5.55112e-17
66 2 15.8865 159.356 -5.55112e-17
67 2 172.25 95.0074 -5.55112e-17
68 1 134.344 80.9567 -5.55112e-17
69 2 127.078 167.674 -5.55112e-17
70 1 137.763 95.7918 -5.55112e-17
71 1 185.812 144.773 -5.55112e-17
72 2 41.2491 157.595 -5.55112e-17
73 2 1.43002 196.294 -5.55112e-17
74 2 101.204 43.5655 -5.55112e-17
75 1 0.705891 130.056 -5.55112e-17
76 2 164.091 184.139 -5.55112e-17
77 2 183.838 2.38737 -5.55112e-17
78 1 98.0806 180.132 -5.55112e-17
79 2 59.7522 72.5282 -5.55112e-17
80 1 52.8332 35.5009 -5.55112e-17
81 1 158.247 203.221 -5.55112e-17
82 1 179.009 70.0446 -5.55112e-17
83 1 70.6126 91.4612 -5.55112e-17
84 2 132.663 182.832 -5.55112e-17
85 2 140.152 171.744 -5.55112e-17
86 2 48.4533 64.8476 -5.55112e-17
87 2 15.9582 121.79 -5.55112e-17
88 1 73.9468 159.943 -5.55112e-17
89 2 182.853 129.023 -5.55112e-17
90 2 143.473 45.4958 -5.55112e-17
91 2 11.7103 187.866 -5.55112e-17
92 1 20.5979 1.56528 -5.55112e-17
93 2 107.532 152.875 -5.55112e-17
94 2 127.82 150.372 -5.55112e-17
95 1 206.712 54.8625 -5.55112e-17
96 2 43.5926 62.6843 -5.55112e-17
97 2 7.79668 212.117 -5.55112e-17
98 2 31.4253 198.133 -5.55112e-17
99 1 98.0561 38.6739 -5.55112e-17
100 2 170.685 61.5154 -5.55112e-17
101 1 143.357 115.487 -5.55112e-17
102 1 62.4275 162.033 -5.55112e-17
103 2 204.603 92.8625 -5.55112e-17
104 2 82.7912 62.1934 -5.55112e-17
105 1 202.24 53.6377 -5.55112e-17
106 1 197.265 81.2988 -5.55112e-17
107 1 194.806 95.9024 -5.55112e-17
108 1 65.4957 217.819 -5.55112e-17
109 2 2.19047 51.4502 -5.55112e-17
110 2 158.09 29.2405 -5.55112e-17
111 1 49.3675 91.8958 -5.55112e-17
112 2 15.7831 50.3557 -5.55112e-17
113 1 145.788 14.1127 -5.55112e-17
114 1 70.4102 93.8743 -5.55112e-17
115 2 36.4562 74.7089 -5.55112e-17
116 2 173.753 14.1581 -5.55112e-17
117 1 153.425 147.391 -5.55112e-17
118 1 70.3381 96.8728 -5.55112e-17
119 2 96.4667 137.717 -5.55112e-17
120 2 187.299 75.2064 -5.55112e-17
121 1 215.764 124.384 -5.55112e-17
122 2 143.618 150.064 -5.55112e-17
123 2 3.01422 131.673 -5.55112e-17
124 1 145.878 201.737 -5.55112e-17
125 1 97.2032 182.39 -5.55112e-17
126 2 74.1719 71.6461 -5.55112e-17
127 2 8.7763 48.1851 -5.55112e-17
128 1 117.182 101.696 -5.55112e-17
129 1 158.242 170.456 -5.55112e-17
130 2 157.615 46.7918 -5.55112e-17
131 1 141.877 53.8566 -5.55112e-17
132 1 151.209 39.5066 -5.55112e-17
133 1 212.313 108.902 -5.55112e-17
134 1 85.3263 182.542 -5.55112e-17
135 2 189.36 72.9559 -5.55112e-17
136 1 164.795 151.891 -5.55112e-17
137 1 53.2599 212.008 -5.55112e-17
138 2 138.389 135.948 -5.55112e-17
139 1 127.471 20.8912 -5.55112e-17
140 1 156.618 198.511 -5.55112e-17
141 1 44.8451 75.6478 -5.55112e-17
142 1 217.659 216.669 -5.55112e-17
143 1 33.8036 20.9314 -5.55112e-17
144 1 24.0678 63.0058 -5.55112e-17
145 2 197.581 73.7523 -5.55112e-17
146 1 189.932 97.438 -5.55112e-17
147 2 205.546 112.705 -5.55112e-17
148 1 25.0222 109.595 -5.55112e-17
149 1 190.096 180.65 -5.55112e-17
150 2 98.3509 25.4313 -5.55112e-17
151 1 119.988 147.551 -5.55112e-17
152 1 196.94 175.16 -5.55112e-17
153 2 103.076 135.67 -5.55112e-17
154 1 184.145 59.5593 -5.55112e-17
155 2 215.741 51.9391 -5.55112e-17
156 2 110.544 179.447 -5.55112e-17
157 2 166.919 7.06107 -5.55112e-17
158 2 40.2583 8.13728 -5.55112e-17
159 2 19.0935 160.023 -5.55112e-17
160 2 104.039 24.0006 -5.55112e-17
161 2 115.33 115.682 -5.55112e-17
162 1 212.48 64.608 -5.55112e-17
163 1 216.614 59.3341 -5.55112e-17
164 2 116.068 138.192 -5.55112e-17
165 1 35.5024 84.8268 -5.55112e-17
166 2 12.5297 210.187 -5.55112e-17
167 1 117.978 179.79 -5.55112e-17
168 1 213.447 143.288 -5.55112e-17
169 2 87.7956 186.522 -5.55112e-17
170 1 65.9043 215.061 -5.55112e-17
171 1 133.456 90.0594 -5.55112e-17
172 1 202.993 202.246 -5.55112e-17
173 1 33.8043 197.007 -5.55112e-17
174 2 40.5057 173.312 -5.55112e-17
175 2 108.503 211.084 -5.55112e-17
176 1 112.465 154.191 -5.55112e-17
177 2 104.8 214.217 -5.55112e-17
178 1 32.9614 11.7617 -5.55112e-17
179 2 111.528 195.987 -5.55112e-17
180 1 66.2233 111.661 -5.55112e-17
181 1 14.3053 116.592 -5.55112e-17
182 1 95.3598 110.826 -5.55112e-17
183 1 61.0133 166.291 -5.55112e-17
184 2 177.184 12.8691 -5.55112e-17
185 2 161.129 97.8724 -5.55112e-17
186 2 81.8277 207.254 -5.55112e-17
187 2 150.949 217.038 -5.55112e-17
188 2 46.1597 211.042 -5.55112e-17
189 1 173.048 63.2406 -5.55112e-17
190 1 180.963 68.3864 -5.55112e-17
191 2 24.5467 117.156 -5.55112e-17
192 2 85.6734 67.6994 -5.55112e-17
193 1 108.066 178.125 -5.55112e-17
194 1 45.0962 10.9684 -5.55112e-17
195 2 67.7278 109.437 -5.55112e-17
196 1 4.33445 2.23123 -5.55112e-17
197 2 78.1454 90.3188 -5.55112e-17
198 2 210.979 39.1431 -5.55112e-17
199 2 101.018 165.915 -5.55112e-17
200 2 125.765 51.7429 -5.55112e-17
201 2 105.531 125.65 -5.55112e-17
202 1 69.8347 43.0763 -5.55112e-17
203 1 19.1219 35.0412 -5.55112e-17
204 2 49.0042 73.8948 -5.55112e-17
205 2 216.637 179.99 -5.55112e-17
206 2 186.912 131.169 -5.55112e-17
207 1 58.4399 196.485 -5.55112e-17
208 2 136.625 45.7666 -5.55112e-17
209 2 17.6622 143.254 -5.55112e-17
210 1 15.3042 85.7975 -5.55112e-17
211 1 197.932 61.1791 -5.55112e-17
212 1 24.0758 107.304 -5.55112e-17
213 1 122.94 121.149 -5.55112e-17
214 2 15.4197 10.8149 -5.55112e-17
215 1 11.3559 141.065 -5.55112e-17
216 1 91.5039 23.2856 -5.55112e-17
217 1 162.561 62.4849 -5.55112e-17
218 2 201.955 131.511 -5.55112e-17
219 2 151.469 182.993 -5.55112e-17
220 1 122.893 218.019 -5.55112e-17
221 2 77.0751 67.0652 -5.55112e-17
222 1 138.733 150.856 -5.55112e-17
223 1 56.5296 121.521 -5.55112e-17
224 2 134.539 71.1945 -5.55112e-17
225 2 120.233 150.263 -5.55112e-17
226 1 195.775 13.5186 -5.55112e-17
227 2 203.706 6.8551 -5.55112e-17
228 2 114.865 66.6032 -5.55112e-17
229 1 26.0328 207.26 -5.55112e-17
230 1 18.0777 40.1637 -5.55112e-17
231 2 150.676 112.198 -5.55112e-17
232 1 21.7973 3.68159 -5.55112e-17
233 2 56.7548 1.46862 -5.55112e-17
234 1 196.217 59.6248 -5.55112e-17
235 1 145.567 105.039 -5.55112e-17
236 2 171.922 28.03 -5.55112e-17
237 2 105.3 191.027 -5.55112e-17
238 2 91.8383 138.481 -5.55112e-17
239 1 47.281 198.629 -5.55112e-17
240 1 127.97 86.5278 -5.55112e-17
241 2 1.8118 113.295 -5.55112e-17
242 1 165.946 41.2322 -5.55112e-17
243 2 215.752 144.431 -5.55112e-17
244 2 20.9125 204.886 -5.55112e-17
245 1 194.564 20.9685 -5.55112e-17
246 2 88.0943 96.4161 -5.55112e-17
247 2 137.021 138.807 -5.55112e-17
248 1 50.0601 34.604 -5.55112e-17
249 1 127.368 105.52 -5.55112e-17
250 1 135.003 40.2494 -5.55112e-17
251 2 125.669 72.9256 -5.55112e-17
252 1 108.226 155.328 -5.55112e-17
253 2 81.8883 74.8085 -5.55112e-17
254 2 182.711 210.784 -5.55112e-17
255 2 122.174 48.4634 -5.55112e-17
256 1 218.094 197.538 -5.55112e-17
257 2 30.8887 192.737 -5.55112e-17
258 1 213.126 85.7509 -5.55112e-17
259 2 166.264 100.974 -5.55112e-17
260 1 36.5603 180.187 -5.55112e-17
261 2 146.041 193.965 -5.55112e-17
262 2 163.54 117.893 -5.55112e-17
263 2 100.337 175.216 -5.55112e-17
264 1 167.062 58.0761 -5.55112e-17
265 1 116.419 192.771 -5.55112e-17
266 1 49.1448 196.813 -5.55112e-17
267 2 80.8187 210.458 -5.55112e-17
268 1 5.66661 64.3879 -5.55112e-17
269 2 15.4049 101.321 -5.55112e-17
270 2 205.602 147.096 -5.55112e-17
271 2 185.748 83.3848 -5.55112e-17
272 1 72.9168 10.4493 -5.55112e-17
273 1 70.3846 83.4361 -5.55112e-17
274 1 10.052 216.001 -5.55112e-17
275 1 138.308 117.198 -5.55112e-17
276 1 206.116 85.914 -5.55112e-17
277 1 91.6095 13.7071 -5.55112e-17
278 2 64.8004 155.565 -5.55112e-17
279 2 157.314 87.011 -5.55112e-17
280 1 123.076 200.307 -5.55112e-17
281 2 145.694 161.101 -5.55112e-17
282 2 77.5527 120.863 -5.55112e-17
283 2 3.55148 151.066 -5.55112e-17
284 1 121.257 110.597 -5.55112e-17
285 1 71.0038 166.29 -5.55112e-17
286 2 30.309 185.005 -5.55112e-17
287 2 110.709 63.3604 -5.55112e-17
288 1 94.7275 121.872 -5.55112e-17
289 2 190.385 47.8118 -5.55112e-17
290 1 119.889 15.5984 -5.55112e-17
291 2 116.283 165.212 -5.55112e-17
292 1 77.9817 111.857 -5.55112e-17
293 1 145.433 117.355 -5.55112e-17
294 1 29.9683 182.312 -5.55112e-17
295 2 43.6369 145.677 -5.55112e-17
296 1 196.102 159.028 -5.55112e-17
297 1 8.06668 20.4741 -5.55112e-17
298 2 20.6076 128.772 -5.55112e-17
299 1 184.314 56.8988 -5.55112e-17
300 2 201.61 200.117 -5.55112e-17
301 2 155.272 29.4485 -5.55112e-17
302 2 160.344 90.5436 -5.55112e-17
303 1 8.35605 148.431 -5.55112e-17
304 1 119.78 102.791 -5.55112e-17
305 1 99.9027 172.146 -5.55112e-17
306 2 61.7489 4.36437 -5.55112e-17
307 2 143.841 129.575 -5.55112e-17
308 2 150.651 23.5683 -5.55112e-17
309 1 79.927 71.7186 -5.55112e-17
310 1 191.436 160.811 -5.55112e-17
311 1 144.006 106.863 -5.55112e-17
312 2 126.411 18.5294 -5.55112e-17
313 2 179.817 44.6849 -5.55112e-17
314 1 177.923 113.033 -5.55112e-17
315 2 62.9218 118.73 -5.55112e-17
316 1 102.788 21.4151 -5.55112e-17
317 1 132.602 189.36 -5.55112e-17
318 1 206.183 152.379 -5.55112e-17
319 2 82.6759 194.047 -5.55112e-17
320 1 1.94585 44.2741 -5.55112e-17
321 1 37.0335 107.79 -5.55112e-17
322 1 47.82 148.585 -5.55112e-17
323 2 32.6298 153.583 -5.55112e-17
324 2 3.47732 98.0941 -5.55112e-17
325 2 2.61837 16.2007 -5.55112e-17
326 1 191.576 25.0077 -5.55112e-17
327 1 217.664 47.257 -5.55112e-17
328 2 27.1408 2.63442 -5.55112e-17
329 2 31.1337 66.4243 -5.55112e-17
330 2 163.855 34.1808 -5.55112e-17
331 2 184.884 64.7657 -5.55112e-17
332 2 116.845 111.615 -5.55112e-17
333 2 20.0097 147.69 -5.55112e-17
334 2 2.72603 20.6057 -5.55112e-17
335 1 167.668 215.078 -5.55112e-17
336 2 30.8153 146.045 -5.55112e-17
337 2 61.9591 213.161 -5.55112e-17
338 1 182.388 138.975 -5.55112e-17
339 2 25.2388 162.215 -5.55112e-17
340 2 161.267 212.065 -5.55112e-17
341 2 85.7167 78.926 -5.55112e-17
342 2 172.02 150.174 -5.55112e-17
343 2 176.493 5.07569 -5.55112e-17
344 1 108.966 96.3002 -5.55112e-17
345 2 44.0753 215.308 -5.55112e-17
346 2 77.645 57.419 -5.55112e-17
347 1 144.253 97.2066 -5.55112e-17
348 1 175.284 216.402 -5.55112e-17
349 2 168.228 75.9725 -5.55112e-17
350 2 78.194 179.821 -5.55112e-17
351 1 185.536 115.116 -5.55112e-17
352 1 215.327 160.289 -5.55112e-17
353 2 146.499 122.154 -5.55112e-17
354 2 201.181 178.593 -5.55112e-17
355 1 1.09117 157.771 -5.55112e-17
356 2 118.378 218.862 -5.55112e-17
357 1 119.345 174.608 -5.55112e-17
358 1 117.663 26.0489 -5.55112e-17
359 1 12.4063 134.487 -5.55112e-17
360 1 46.0496 1.70594 -5.55112e-17
361 2 183.934 31.9044 -5.55112e-17
362 2 166.165 84.8599 -5.55112e-17
363 1 116.254 202.326 -5.55112e-17
364 2 10.7358 41.2867 -5.55112e-17
365 1 8.48543 164.241 -5.55112e-17
366 1 80.9322 172.612 -5.55112e-17
367 1 175.673 85.9707 -5.55112e-17
368 1 18.9017 169.093 -5.55112e-17
369 2 78.8515 137.571 -5.55112e-17
370 1 183.451 141.052 -5.55112e-17
371 2 67.9102 124.33 -5.55112e-17
372 1 58.8984 3.0896 -5.55112e-17
373 2 103.55 193.308 -5.55112e-17
374 2 190.062 110.164 -5.55112e-17
375 1 138.942 31.6412 -5.55112e-17
376 1 109.873 153.39 -5.55112e-17
377 2 82.699 71.8198 -5.55112e-17
378 2 179.729 101.553 -5.55112e-17
379 2 194.464 180.451 -5.55112e-17
380 1 198.279 27.9955 -5.55112e-17
381 1 179.079 5.21243 -5.55112e-17
382 1 144.785 58.7242 -5.55112e-17
383 1 103.257 104.992 -5.55112e-17
384 2 44.9695 100.192 -5.55112e-17
385 1 51.2342 128.44 -5.55112e-17
386 2 183.285 167.421 -5.55112e-17
387 1 21.1993 80.9473 -5.55112e-17
388 1 152.502 158.558 -5.55112e-17
389 2 198.251 109.539 -5.55112e-17
390 1 96.7648 23.0577 -5.55112e-17
391 1 210.333 3.19094 -5.55112e-17
392 2 35.4113 109.957 -5.55112e-17
393 2 194.18 198.698 -5.55112e-17
394 1 18.7692 195.739 -5.55112e-17
395 1 16.6973 3.69358 -5.55112e-17
396 2 80.8174 86.093 -5.55112e-17
397 1 60.3332 28.5289 -5.55112e-17
398 2 147.418 125.837 -5.55112e-17
399 2 166.284 95.8425 -5.55112e-17
400 2 130.67 74.7773 -5.55112e-17
401 2 81.5942 201.381 -5.55112e-17
402 1 72.6512 17.9121 -5.55112e-17
403 1 54.0698 120.682 -5.55112e-17
404 2 103.168 201.424 -5.55112e-17
405 1 79.1708 185.122 -5.55112e-17
406 2 218.251 108.592 -5.55112e-17
407 1 121.001 76.3375 -5.55112e-17
408 1 127.877 50.3296 -5.55112e-17
409 2 210.235 101.966 -5.55112e-17
410 2 72.2939 153.767 -5.55112e-17
411 1 132.564 94.3942 -5.55112e-17
412 1 162.549 2.9813 -5.55112e-17
413 1 39.8141 91.3722 -5.55112e-17
414 2 197.106 209.813 -5.55112e-17
415 1 86.3557 116.568 -5.55112e-17
416 1 173.19 54.8129 -5.55112e-17
417 2 114.108 145.01 -5.55112e-17
418 2 34.7344 184.562 -5.55112e-17
419 2 207.645 93.6041 -5.55112e-17
420 2 97.8792 55.3043 -5.55112e-17
421 1 75.9928 73.7944 -5.55112e-17
422 1 5.32413 73.826 -5.55112e-17
423 2 116.241 150.977 -5.55112e-17
424 2 27.3168 24.2852 -5.55112e-17
425 2 119.791 129.015 -5.55112e-17
426 1 188.571 129.038 -5.55112e-17
427 2 93.54 51.9144 -5.55112e-17
428 1 29.8817 179.862 -5.55112e-17
429 2 158.93 130.946 -5.55112e-17
430 2 112.697 102.558 -5.55112e-17
431 1 18.0116 10.4711 -5.55112e-17
432 2 185.712 40.1547 -5.55112e-17
433 1 177.142 196.793 -5.55112e-17
434 1 207.32 180.577 -5.55112e-17
435 1 146.985 84.5031 -5.55112e-17
436 2 55.8957 211.852 -5.55112e-17
437 2 169.955 84.2196 -5.55112e-17
438 2 184.76 190.216 -5.55112e-17
439 2 93.8285 11.9392 -5.55112e-17
440 2 27.7042 89.3944 -5.55112e-17
441 1 113.392 169.175 -5.55112e-17
442 1 10.4131 107.301 -5.55112e-17
443 2 80.7574 91.4379 -5.55112e-17
444 1 199.524 93.2693 -5.55112e-17
445 1 192.086 171.066 -5.55112e-17
446 2 168.272 134.918 -5.55112e-17
447 2 50.9473 45.8193 -5.55112e-17
448 2 184.778 181.279 -5.55112e-17
449 1 63.8925 195.163 -5.55112e-17
450 1 6.10419 122.444 -5.55112e-17
451 1 82.3773 7.10354 -5.55112e-17
452 2 198.798 79.2235 -5.55112e-17
453 1 1.3269 142.044 -5.55112e-17
454 1 198.963 71.3375 -5.55112e-17
455 2 63.5941 134.718 -5.55112e-17
456 1 92.777 201.113 -5.55112e-17
457 2 164.863 138.674 -5.55112e-17
458 2 158.512 147.936 -5.55112e-17
459 2 129.255 65.5207 -5.55112e-17
460 1 186.278 187.849 -5.55112e-17
461 1 140.303 175.879 -5.55112e-17
462 1 87.6218 189.245 -5.55112e-17
463 2 114.318 200.323 -5.55112e-17
464 2 35.657 48.75 -5.55112e-17
465 1 124.911 15.7954 -5.55112e-17
466 2 190.893 119.739 -5.55112e-17
467 2 60.0713 147.02 -5.55112e-17
468 2 155.793 148.686 -5.55112e-17
469 2 51.0419 71.7701 -5.55112e-17
470 2 190.845 141.853 -5.55112e-17
471 2 3.01478 211.328 -5.55112e-17
472 2 98.1649 18.0757 -5.55112e-17
473 2 200.863 7.90082 -5.55112e-17
474 2 82.0259 145.63 -5.55112e-17
475 1 160.192 180.189 -5.55112e-17
476 2 188.748 50.6159 -5.55112e-17
477 1 0.445956 0.222181 -5.55112e-17
478 1 42.4054 189.496 -5.55112e-17
479 2 47.8696 206.285 -5.55112e-17
480 1 81.0852 60.241 -5.55112e-17
481 1 30.1427 211.418 -5.55112e-17
482 2 186.035 200.093 -5.55112e-17
483 1 136.708 196.058 -5.55112e-17
484 1 70.2287 136.79 -5.55112e-17
485 2 10.6962 181.56 -5.55112e-17
486 1 96.6049 82.836 -5.55112e-17
487 1 27.1049 199.609 -5.55112e-17
488 1 46.3195 73.6184 -5.55112e-17
489 1 87.6808 112.549 -5.55112e-17
490 1 163.058 74.702 -5.55112e-17
491 1 161.179 76.6385 -5.55112e-17
492 2 214.795 19.03 -5.55112e-17
493 1 81.3158 42.9952 -5.55112e-17
494 2 95.3478 80.5213 -5.55112e-17
495 1 146.708 91.3278 -5.55112e-17
496 1 56.6059 133.545 -5.55112e-17
497 1 132.208 107.635 -5.55112e-17
498 2 161.085 28.7107 -5.55112e-17
499 2 131.665 177.077 -5.55112e-17
500 2 69.8006 48.239 -5.55112e-17
501 2 10.4391 132.858 -5.55112e-17
502 2 199.666 149.049 -5.55112e-17
503 2 47.422 61.7812 -5.55112e-17
504 2 97.2593 30.7164 -5.55112e-17
505 2 98.9689 187.112 -5.55112e-17
506 1 209.693 7.29424 -5.55112e-17
507 2 61.0443 196.105 -5.55112e-17
508 1 125.416 75.5881 -5.55112e-17
509 1 198.505 32.4173 -5.55112e-17
510 1 194.104 84.6695 -5.55112e-17
511 2 90.7319 182.752 -5.55112e-17
512 1 33.3831 64.5138 -5.55112e-17
513 2 101.872 187.969 -5.55112e-17
514 2 0.0327657 90.3421 -5.55112e-17
515 1 65.6163 101.843 -5.55112e-17
516 2 75.2606 96.4978 -5.55112e-17
517 1 12.5238 147.84 -5.55112e-17
518 2 15.5608 14.7452 -5.55112e-17
519 1 120.486 86.3221 -5.55112e-17
520 2 40.5385 81.1867 -5.55112e-17
521 2 166.432 17.8632 -5.55112e-17
522 1 185.973 16.4131 -5.55112e-17
523 1 123.499 96.4311 -5.55112e-17
524 2 183.74 17.9715 -5.55112e-17
525 2 186.717 58.1847 -5.55112e-17
526 2 108.851 27.9066 -5.55112e-17
527 1 150.491 0.836182 -5.55112e-17
528 1 9.8829 210.477 -5.55112e-17
529 2 108.089 190.998 -5.55112e-17
530 2 33.2031 88.6163 -5.55112e-17
531 2 167.656 166.684 -5.55112e-17
532 1 75.2383 49.4006 -5.55112e-17
533 2 12.8546 155.34 -5.55112e-17
534 1 25.515 156.921 -5.55112e-17
535 1 166.906 202.669 -5.55112e-17
536 2 11.1067 172.915 -5.55112e-17
537 1 152.785 41.3164 -5.55112e-17
538 1 55.4886 155.659 -5.55112e-17
539 2 77.0365 163.541 -5.55112e-17
540 1 33.055 191.123 -5.55112e-17
541 1 121.754 143.211 -5.55112e-17
542 1 59.8406 124.031 -5.55112e-17
543 2 113.143 183.213 -5.55112e-17
544 1 8.66735 206.116 -5.55112e-17
545 1 168.848 69.0604 -5.55112e-17
546 2 187.017 14.1381 -5.55112e-17
547 1 21.6261 70.154 -5.55112e-17
548 1 41.2795 19.0989 -5.55112e-17
549 2 36.3076 163.885 -5.55112e-17
550 2 184.122 197.849 -5.55112e-17
551 2 38.9322 29.7828 -5.55112e-17
552 1 32.0232 52.4023 -5.55112e-17
553 2 218.995 178.159 -5.55112e-17
554 2 154.361 24.5894 -5.55112e-17
555 2 177.114 143.55 -5.55112e-17
556 1 181.389 0.816268 -5.55112e-17
557 1 211.356 60.0434 -5.55112e-17
558 1 54.7596 144.733 -5.55112e-17
559 2 107.166 100.617 -5.55112e-17
560 2 56.6049 89.2743 -5.55112e-17
561 2 104.239 172.963 -5.55112e-17
562 2 99.0077 88.2927 -5.55112e-17
563 1 70.6499 168.601 -5.55112e-17
564 2 94.6965 54.8517 -5.55112e-17
565 2 14.4542 65.9684 -5.55112e-17
566 2 24.2114 51.0572 -5.55112e-17
567 1 108.871 195.672 -5.55112e-17
568 1 60.1004 69.6677 -5.55112e-17
569 2 141.087 183.225 -5.55112e-17
570 2 15.868 19.9656 -5.55112e-17
571 2 195.626 57.3971 -5.55112e-17
572 1 106.08 105.672 -5.55112e-17
573 2 19.2946 37.7698 -5.55112e-17
574 2 160.503 186.991 -5.55112e-17
575 1 200.811 214.287 -5.55112e-17
576 1 44.9758 83.1191 -5.55112e-17
577 1 109.586 74.5954 -5.55112e-17
578 1 185.783 174.24 -5.55112e-17
579 2 196.564 83.9813 -5.55112e-17
580 1 82.5369 96.0365 -5.55112e-17
581 1 88.7151 144.782 -5.55112e-17
582 2 121.41 98.0304 -5.55112e-17
583 2 101.86 86.723 -5.55112e-17
584 2 104.403 149.256 -5.55112e-17
585 1 179.702 104.018 -5.55112e-17
586 1 147.726 80.699 -5.55112e-17
587 1 169.952 111.259 -5.55112e-17
588 2 37.212 99.8162 -5.55112e-17
589 1 194.954 74.6603 -5.55112e-17
590 2 168.009 60.2675 -5.55112e-17
591 2 192.837 8.34361 -5.55112e-17
592 1 206.747 125.106 -5.55112e-17
593 1 126.181 88.0863 -5.55112e-17
594 1 210.484 62.2842 -5.55112e-17
595 1 16.3874 75.6896 -5.55112e-17
596 2 111.931 75.4489 -5.55112e-17
597 2 84.4045 118.463 -5.55112e-17
598 2 132.377 85.0993 -5.55112e-17
599 2 93.1891 164.978 -5.55112e-17
600 2 62.2979 124.325 -5.55112e-17
601 1 141.492 106.215 -5.55112e-17
602 1 139.378 70.0521 -5.55112e-17
603 2 3.41756 159.002 -5.55112e-17
604 1 39.1694 167.954 -5.55112e-17
605 2 135.962 97.9859 -5.55112e-17
606 2 146.386 98.4713 -5.55112e-17
607 2 31.5631 175.336 -5.55112e-17
608 2 126.805 63.0505 -5.55112e-17
609 1 90.6045 97.794 -5.55112e-17
610 2 117.954 176.992 -5.55112e-17
611 1 3.84896 164.562 -5.55112e-17
612 1 194.304 107.368 -5.55112e-17
613 2 217.49 153.575 -5.55112e-17
614 1 204.285 27.8915 -5.55112e-17
615 1 147.463 103.643 -5.55112e-17
616 2 145.808 158.046 -5.55112e-17
617 1 179.539 215.146 -5.55112e-17
618 1 125.569 11.0122 -5.55112e-17
619 1 148.401 128.15 -5.55112e-17
620 2 39.5602 66.6516 -5.55112e-17
621 2 198.689 68.7726 -5.55112e-17
622 2 126.626 132.01 -5.55112e-17
623 2 116.889 143.615 -5.55112e-17
624 1 99.1446 198.934 -5.55112e-17
625 2 5.61561 95.7786 -5.55112e-17
626 1 200.731 175.719 -5.55112e-17
627 2 191.113 193.764 -5.55112e-17
628 1 134.453 127.153 -5.55112e-17
629 1 21.4247 19.4374 -5.55112e-17
630 2 137.449 24.4785 -5.55112e-17
631 2 140.102 110.805 -5.55112e-17
632 2 214.868 23.2646 -5.55112e-17
633 2 49.0221 123.916 -5.55112e-17
634 2 192.802 87.4319 -5.55112e-17
635 2 71.5653 67.1043 -5.55112e-17
636 1 85.3326 129.157 -5.55112e-17
637 1 1.39259 149.962 -5.55112e-17
638 1 95.5761 34.9663 -5.55112e-17
639 2 196.49 76.6425 -5.55112e-17
640 2 151.272 72.2923 -5.55112e-17
641 1 195.311 109.695 -5.55112e-17
642 2 151.92 60.0996 -5.55112e-17
643 1 114.574 54.4337 -5.55112e-17
644 2 133.82 154.879 -5.55112e-17
645 2 7.58078 62.2865 -5.55112e-17
646 1 170.041 145.231 -5.55112e-17
647 2 121.003 126.093 -5.55112e-17
648 2 197.296 11.4023 -5.55112e-17
649 1 51.1919 136.134 -5.55112e-17
650 1 52.9491 154.093 -5.55112e-17
651 1 103.163 111.985 -5.55112e-17
652 2 5.20367 213.37 -5.55112e-17
653 2 188.911 25.2982 -5.55112e-17
654 1 210.735 155.198 -5.55112e-17
655 1 103.557 50.1494 -5.55112e-17
656 1 197.059 5.86963 -5.55112e-17
657 1 120.262 117.197 -5.55112e-17
658 2 179.731 92.9136 -5.55112e-17
659 2 118.149 136.017 -5.55112e-17
660 1 31.3218 14.1136 -5.55112e-17
661 2 18.276 32.2949 -5.55112e-17
662 2 130.8 114.203 -5.55112e-17
663 1 190.541 112.929 -5.55112e-17
664 1 82.4467 122.855 -5.55112e-17
665 1 124.463 146.72 -5.55112e-17
666 1 191.085 164.323 -5.55112e-17
667 1 5.94937 120.129 -5.55112e-17
668 1 117.856 149.062 -5.55112e-17
669 1 104.82 159.071 -5.55112e-17
670 2 197.666 139.048 -5.55112e-17
671 1 8.98873 17.8124 -5.55112e-17
672 1 209.849 190.623 -5.55112e-17
673 2 45.3489 120.274 -5.55112e-17
674 2 155.902 217.482 -5.55112e-17
675 2 158.232 200.847 -5.55112e-17
676 1 177.643 151.986 -5.55112e-17
677 2 48.9525 54.551 -5.55112e-17
678 1 92.8392 81.167 -5.55112e-17
679 1 68.7095 31.191 -5.55112e-17
680 2 69.6404 34.0087 -5.55112e-17
681 1 10.2187 10.71 -5.55112e-17
682 1 136.237 174.602 -5.55112e-17
683 2 107.087 128.484 -5.55112e-17
684 1 23.2361 184.452 -5.55112e-17
685 1 56.4315 197.448 -5.55112e-17
686 1 131.645 153.375 -5.55112e-17
687 1 52.8342 63.0147 -5.55112e-17
688 1 149.36 91.7476 -5.55112e-17
689 2 213.695 137.618 -5.55112e-17
690 1 43.0098 112.464 -5.55112e-17
691 2 69.0163 129.34 -5.55112e-17
692 2 199.834 168.592 -5.55112e-17
693 1 161.299 101.023 -5.55112e-17
694 2 167.812 139.545 -5.55112e-17
695 2 181.155 36.019 -5.55112e-17
696 2 209.677 98.6611 -5.55112e-17
697 1 117.511 54.4381 -5.55112e-17
698 2 44.8925 40.6082 -5.55112e-17
699 1 83.5041 205.594 -5.55112e-17
700 2 21.8681 134.682 -5.55112e-17
701 2 47.029 84.5514 -5.55112e-17
702 1 121.856 8.21535 -5.55112e-17
703 1 196.012 68.0935 -5.55112e-17
704 1 196.881 107.429 -5.55112e-17
705 1 29.4298 133.984 -5.55112e-17
706 1 71.9951 161.815 -5.55112e-17
707 1 157.477 49.2503 -5.55112e-17
708 2 196.216 112.116 -5.55112e-17
709 1 50.6844 157.844 -5.55112e-17
710 2 95.9717 37.4492 -5.55112e-17
711 2 195.278 177.36 -5.55112e-17
712 1 110.58 16.1668 -5.55112e-17
713 1 15.7105 156.607 -5.55112e-17
714 2 135.451 147.502 -5.55112e-17
715 2 129.569 82.4083 -5.55112e-17
716 1 92.239 46.3168 -5.55112e-17
717 1 10.9491 87.2281 -5.55112e-17
718 2 95.2784 75.745 -5.55112e-17
719 1 80.8606 2.02846 -5.55112e-17
720 2 45.2504 200.3 -5.55112e-17
721 2 47.3468 191.169 -5.55112e-17
722 2 55.7365 136.157 -5.55112e-17
723 2 33.8431 145.803 -5.55112e-17
724 2 218.223 85.3764 -5.55112e-17
725 2 9.46773 68.3987 -5.55112e-17
726 2 180.113 163.147 -5.55112e-17
727 2 19.9301 105.346 -5.55112e-17
728 1 172.857 75.0863 -5.55112e-17
729 2 191.83 150.497 -5.55112e-17
730 2 167.176 121.459 -5.55112e-17
731 1 2.81219 41.618 -5.55112e-17
732 2 94.8316 98.9617 -5.55112e-17
733 2 150.774 146.243 -5.55112e-17
734 2 46.7727 195.868 -5.55112e-17
735 2 146.541 46.904 -5.55112e-17
736 1 181.939 181.646 -5.55112e-17
737 2 34.5806 31.775 -5.55112e-17
738 2 76.7828 215.752 -5.55112e-17
739 2 208.809 159.01 -5.55112e-17
740 2 34.7485 107.222 -5.55112e-17
741 2 179.038 107.183 -5.55112e-17
742 1 75.4035 91.2345 -5.55112e-17
743 2 85.6304 89.0914 -5.55112e-17
744 1 160.308 41.2128 -5.55112e-17
745 2 16.722 87.9814 -5.55112e-17
746 1 217.628 118.069 -5.55112e-17
747 1 93.2998 160.096 -5.55112e-17
748 2 90.7206 187.72 -5.55112e-17
749 1 215.411 163.693 -5.55112e-17
750 1 146.289 107.376 -5.55112e-17
751 1 139.513 87.5239 -5.55112e-17
752 2 195.697 164.844 -5.55112e-17
753 1 49.6737 189.399 -5.55112e-17
754 2 65.7004 81.1079 -5.55112e-17
755 1 214.86 96.3232 -5.55112e-17
756 2 196.19 70.7522 -5.55112e-17
757 1 136.247 16.3246 -5.55112e-17
758 2 121.079 13.0598 -5.55112e-17
759 1 107.232 142.608 -5.55112e-17
760 1 152.376 29.8053 -5.55112e-17
761 2 15.7532 114.194 -5.55112e-17
762 1 195.951 119.455 -5.55112e-17
763 2 8.41565 153.378 -5.55112e-17
764 2 52.9983 176.711 -5.55112e-17
765 1 18.603 171.657 -5.55112e-17
766 2 108.007 72.342 -5.55112e-17
767 2 6.56063 135.619 -5.55112e-17
768 2 94.912 18.6587 -5.55112e-17
769 2 172.868 124.718 -5.55112e-17
770 1 136.242 31.6553 -5.55112e-17
771 1 82.0007 45.5544 -5.55112e-17
772 1 114.941 4.93819 -5.55112e-17
773 2 143.129 156.318 -5.55112e-17
774 1 106.389 95.9014 -5.55112e-17
775 1 98.243 48.3254 -5.55112e-17
776 2 192.061 96.3665 -5.55112e-17
777 2 30.8085 86.8919 -5.55112e-17
778 1 73.711 3.04219 -5.55112e-17
779 1 45.0388 60.2801 -5.55112e-17
780 2 88.9062 31.7774 -5.55112e-17
781 1 24.7907 175.162 -5.55112e-17
782 2 143.896 153.194 -5.55112e-17
783 1 105.32 37.0985 -5.55112e-17
784 2 113.795 133.956 -5.55112e-17
785 1 195.153 92.1474 -5.55112e-17
786 1 68.619 12.2254 -5.55112e-17
787 2 43.8701 192.132 -5.55112e-17
788 2 146.625 181.083 -5.55112e-17
789 2 13.3519 142.497 -5.55112e-17
790 2 103.809 8.50431 -5.55112e-17
791 2 192.729 56.582 -5.55112e-17
792 1 189.948 117.165 -5.55112e-17
793 1 89.8508 171.475 -5.55112e-17
794 2 214.327 9.72874 -5.55112e-17
795 2 208.129 185.778 -5.55112e-17
796 1 95.3158 173.096 -5.55112e-17
797 1 40.1131 39.4236 -5.55112e-17
798 1 2.28226 67.2512 -5.55112e-17
799 2 103.079 153.586 -5.55112e-17
800 1 38.9308 37.3449 -5.55112e-17
801 2 67.8555 84.8638 -5.55112e-17
802 1 67.0453 33.0668 -5.55112e-17
803 1 153.051 34.1928 -5.55112e-17
804 1 207.853 148.419 -5.55112e-17
805 2 204.903 101.272 -5.55112e-17
806 2 167.046 131.778 -5.55112e-17
807 2 208.038 34.8644 -5.55112e-17
808 2 62.8212 142.863 -5.55112e-17
809 1 172.478 59.622 -5.55112e-17
810 2 24.9618 177.649 -5.55112e-17
811 2 202.63 29.8418 -5.55112e-17
812 1 124.26 169.61 -5.55112e-17
813 1 215.681 121.812 -5.55112e-17
814 1 211.741 170.743 -5.55112e-17
815 1 157.26 2.72 -5.55112e-17
816 1 200.234 73.2267 -5.55112e-17
817 2 63.0837 73.5027 -5.55112e-17
818 2 42.3559 109.819 -5.55112e-17
819 2 206.652 76.0748 -5.55112e-17
820 1 13.0134 90.9037 -5.55112e-17
821 1 74.7643 53.6262 -5.55112e-17
822 2 114.238 31.3893 -5.55112e-17
823 1 184.022 89.5197 -5.55112e-17
824 1 174.901 109.553 -5.55112e-17
825 1 171.37 179.963 -5.55112e-17
826 2 174.999 73.6904 -5.55112e-17
827 2 134.887 63.5897 -5.55112e-17
828 1 45.966 87.2996 -5.55112e-17
829 2 124.045 89.2844 -5.55112e-17
830 1 5.5939 152.565 -5.55112e-17
831 2 173.65 218.342 -5.55112e-17
832 2 38.5696 63.4751 -5.55112e-17
833 2 74.4648 5.69087 -5.55112e-17
834 1 67.7425 164.509 -5.55112e-17
835 1 196.943 117.29 -5.55112e-17
836 1 153.5 71.2879 -5.55112e-17
837 2 178.281 110.283 -5.55112e-17
838 2 118.752 47.5963 -5.55112e-17
839 1 34.9025 39.092 -5.55112e-17
840 2 7.85786 118.174 -5.55112e-17
841 2 206.875 14.5067 -5.55112e-17
842 1 205.139 123.524 -5.55112e-17
843 1 205.719 47.3478 -5.55112e-17
844 2 16.3689 35.3536 -5.55112e-17
845 1 43.4087 151.088 -5.55112e-17
846 2 145.948 211.023 -5.55112e-17
847 1 85.4522 141.565 -5.55112e-17
848 2 110.883 11.4114 -5.55112e-17
849 1 23.1085 38.5167 -5.55112e-17
850 2 53.7963 72.3334 -5.55112e-17
851 2 7.06612 27.6884 -5.55112e-17
852 1 130.447 184.584 -5.55112e-17
853 1 159.358 102.971 -5.55112e-17
854 2 100.713 142.854 -5.55112e-17
855 2 160.274 114.259 -5.55112e-17
856 1 75.4218 158.101 -5.55112e-17