ITEM: TIMESTEP
0
ITEM: NUMBER OF ATOMS
7200
ITEM: BOX BOUNDS xy xz yz pp pp pp
0.0000000000000000e+00 2.1900000000000000e+02 0.0000000000000000e+00
0.0000000000000000e+00 2.1900000000000000e+02 0.0000000000000000e+00
-3.6499999999999999e-01 3.6499999999999999e-01 0.0000000000000000e+00
ITEM: ATOMS id type x y z
1 1 173.659 215.512 -5.55112e-17
2 2 184.172 131.258 -5.55112e-17
3 2 190.584 91.4531 -5.55112e-17
4 1 48.023 158.987 -5.55112e-17
5 1 58.0729 103.738 -5.55112e-17
6 1 67.4229 69.6961 -5.55112e-17
7 2 123.166 15.8021 -5.55112e-17
8 2 139.156 193.531 -5.55112e-17
9 1 140.453 163.945 -5.55112e-17
10 2 211.933 104.421 -5.55112e-17
11 2 99.6967 56.6704 -5.55112e-17
12 1 71.0531 207.035 -5.55112e-17
13 2 63.6201 185.942 -5.55112e-17
14 1 154.094 74.8554 -5.55112e-17
15 2 115.287 26.9355 -5.55112e-17
16 2 197.617 110.771 -5.55112e-17
17 1 11.0648 178.763 -5.55112e-17
18 2 19.3512 49.4585 -5.55112e-17
19 1 15.6228 143.106 -5.55112e-17
20 1 71.6355 49.9545 -5.55112e-17
21 1 33.1733 125.085 -5.55112e-17
22 2 7.89137 50.0615 -5.55112e-17
23 2 139.312 95.6534 -5.55112e-17
24 2 60.5207 53.5929 -5.55112e-17
25 2 67.2824 116.416 -5.55112e-17
26 2 73.285 128.157 -5.55112e-17
27 1 197.809 38.9069 -5.55112e-17
28 2 92.0641 54.1373 -5.55112e-17
29 2 154.272 154.827 -5.55112e-17
30 2 7.08542 126.224 -5.55112e-17
31 2 182.709 14.7272 -5.55112e-17
32 1 35.3374 137.148 -5.55112e-17
33 2 29.2429 160.235 -5.55112e-17
34 2 102.083 61.8503 -5.55112e-17
35 2 181.066 142.695 -5.55112e-17
36 1 132.082 78.2806 -5.55112e-17
37 1 209.883 101.623 -5.55112e-17
38 2 165.246 83.1214 -5.55112e-17
39 1 10.1405 59.1447 -5.55112e-17
40 2 187.699 20.1019 -5.55112e-17
41 1 140.062 66.0565 -5.55112e-17
42 1 128.207 46.9146 -5.55112e-17
43 1 6.75756 118.712 -5.55112e-17
44 1 178.69 44.3441 -5.55112e-17
45 2 40.821 193.883 -5.55112e-17
46 1 46.3985 10.6892 -5.55112e-17
47 2 153.243 28.7739 -5.55112e-17
48 2 191.09 82.4251 -5.55112e-17
49 1 148.103 10.591 -5.55112e-17
50 2 21.4817 116.084 -5.55112e-17
51 1 60.1642 203.587 -5.55112e-17
52 1 62.4993 14.6197 -5.55112e-17
53 2 157.864 106.365 -5.55112e-17
54 1 110.698 52.1487 -5.55112e-17
55 2 110.7 96.225 -5.55112e-17
56 1 16.8426 70.0232 -5.55112e-17
57 2 101.197 34.2474 -5.55112e-17
58 1 46.6676 19.3627 -5.55112e-17
59 1 135.676 88.7056 -5.55112e-17
60 2 197.729 164.138 -5.55112e-17
61 1 46.4071 208.047 -5.55112e-17
62 1 94.747 90.9249 -5.55112e-17
63 2 23.1498 155.469 -5.55112e-17
64 1 189.746 110.216 -5.55112e-17
65 2 197.254 134.672 -5.55112e-17
66 2 149.843 19.915 -5.55112e-17
67 2 91.7612 141.52 -5.55112e-17
68 1 165.46 53.3038 -5.55112e-17
69 2 11.3234 170.623 -5.55112e-17
70 1 61.1874 147.766 -5.55112e-17
71 1 189.532 70.4425 -5.55112e-17
72 2 163.813 148.157 -5.55112e-17
73 2 15.7775 103.759 -5.55112e-17
74 2 203.085 33.9975 -5.55112e-17
75 1 112.431 174.766 -5.55112e-17
76 2 160.571 156.033 -5.55112e-17
77 2 125.712 82.6714 -5.55112e-17
78 1 65.5278 195.809 -5.55112e-17
79 2 151.739 178.936 -5.55112e-17
80 1 61.4409 37.1082 -5.55112e-17
81 1 188.4 63.6933 -5.55112e-17
82 1 160.155 105.363 -5.55112e-17
83 1 48.9699 178.841 -5.55112e-17
84 2 176.617 122.33 -5.55112e-17
85 2 142.204 133.416 -5.55112e-17
86 2 70.7472 115.467 -5.55112e-17
87 2 194.036 157.768 -5.55112e-17
88 1 185.753 198.505 -5.55112e-17
89 2 43.7814 180.445 -5.55112e-17
90 2 95.3823 184.138 -5.55112e-17
91 2 88.185 75.1243 -5.55112e-17
92 1 132.184 52.7579 -5.55112e-17
93 2 198.106 98.8693 -5.55112e-17
94 2 35.0936 28.7122 -5.55112e-17
95 1 143.045 186.22 -5.55112e-17
96 2 98.7571 148.735 -5.55112e-17
97 2 183.619 66.4517 -5.55112e-17
98 2 19.5128 87.7342 -5.55112e-17
99 1 112.686 85.3631 -5.55112e-17
100 2 5.35798 105.263 -5.55112e-17
101 1 186.676 70.4253 -5.55112e-17
102 1 197.598 169.416 -5.55112e-17
103 2 73.4705 145.941 -5.55112e-17
104 2 18.6027 20.3538 -5.55112e-17
105 1 87.6158 83.768 -5.55112e-17
106 1 21.9499 111.609 -5.55112e-17
107 1 103.135 24.5386 -5.55112e-17
108 1 12.301 118.719 -5.55112e-17
109 2 53.3412 102.721 -5.55112e-17
110 2 182.274 47.8985 -5.55112e-17
111 1 25.5613 174.963 -5.55112e-17
112 2 182.46 107.645 -5.55112e-17
113 1 211.204 86.8301 -5.55112e-17
114 1 101.736 121.917 -5.55112e-17
115 2 66.2412 48.2272 -5.55112e-17
116 2 80.5234 150.208 -5.55112e-17
117 1 0.772877 14.9027 -5.55112e-17
118 1 75.9541 129.105 -5.55112e-17
119 2 92.4743 113.373 -5.55112e-17
120 2 55.4089 206.121 -5.55112e-17
121 1 177.083 161.156 -5.55112e-17
122 2 113.426 74.5915 -5.55112e-17
123 2 161.196 129.932 -5.55112e-17
124 1 53.4285 191.335 -5.55112e-17
125 1 204.026 31.4372 -5.55112e-17
126 2 104.729 154.228 -5.55112e-17
127 2 184.497 190.548 -5.55112e-17
128 1 50.6226 137.494 -5.55112e-17
129 1 74.1688 84.7811 -5.55112e-17
130 2 181.851 215.525 -5.55112e-17
131 1 84.9821 150.465 -5.55112e-17
132 1 108.882 19.755 -5.55112e-17
133 1 192.525 46.8464 -5.55112e-17
134 1 27.2005 133.054 -5.55112e-17
135 2 160.921 180.932 -5.55112e-17
136 1 64.0433 209.119 -5.55112e-17
137 1 13.2807 55.6135 -5.55112e-17
138 2 73.682 125.059 -5.55112e-17
139 1 67.2915 26.1288 -5.55112e-17
140 1 184.761 63.7995 -5.55112e-17
141 1 47.0617 216.98 -5.55112e-17
142 1 206.04 138.35 -5.55112e-17
143 1 139.546 40.6309 -5.55112e-17
144 1 143.707 62.6842 -5.55112e-17
145 2 155.351 103.104 -5.55112e-17
146 1 154.325 62.967 -5.55112e-17
147 2 170.656 140.961 -5.55112e-17
148 1 46.814 184.686 -5.55112e-17
149 1 43.4125 76.6473 -5.55112e-17
150 2 35.7906 194.705 -5.55112e-17
151 1 163.477 39.2261 -5.55112e-17
152 1 121.952 38.2952 -5.55112e-17
153 2 124.663 114.296 -5.55112e-17
154 1 17.9819 187.826 -5.55112e-17
155 2 126.539 176.177 -5.55112e-17
156 2 32.5262 173.995 -5.55112e-17
157 2 214.454 1.60241 -5.55112e-17
158 2 55.7211 190.64 -5.55112e-17
159 2 108.614 187.284 -5.55112e-17
160 2 113.272 52.9223 -5.55112e-17
161 2 208.159 55.2216 -5.55112e-17
162 1 110.312 81.8344 -5.55112e-17
163 1 109.753 217.993 -5.55112e-17
164 2 4.21841 100.796 -5.55112e-17
165 1 95.8288 195.697 -5.55112e-17
166 2 0.679512 108.401 -5.55112e-17
167 1 48.7678 11.1958 -5.55112e-17
168 1 24.8204 98.8857 -5.55112e-17
169 2 207.272 104.843 -5.55112e-17
170 1 69.5989 24.4216 -5.55112e-17
171 1 181.46 100.953 -5.55112e-17
172 1 123.176 152.421 -5.55112e-17
173 1 147.979 48.275 -5.55112e-17
174 2 209.779 21.6065 -5.55112e-17
175 2 30.1533 141.618 -5.55112e-17
176 1 60.387 122.122 -5.55112e-17
177 2 64.0525 91.6632 -5.55112e-17
178 1 135.833 213.232 -5.55112e-17
179 2 206.778 123.942 -5.55112e-17
180 1 127.526 37.5954 -5.55112e-17
181 1 81.3641 102.774 -5.55112e-17
182 1 12.9622 63.7754 -5.55112e-17
183 1 68.0095 212.446 -5.55112e-17
184 2 128.297 166.488 -5.55112e-17
185 2 207.856 215.318 -5.55112e-17
186 2 31.5251 37.6004 -5.55112e-17
187 2 89.2707 48.8317 -5.55112e-17
188 2 90.4817 218.38 -5.55112e-17
189 1 114.425 62.3762 -5.55112e-17
190 1 44.5815 145.829 -5.55112e-17
191 2 57.0961 111.646 -5.55112e-17
192 2 113.834 153.932 -5.55112e-17
193 1 52.3763 56.8205 -5.55112e-17
194 1 56.7968 193.49 -5.55112e-17
195 2 67.0114 136.693 -5.55112e-17
196 1 84.3959 7.02282 -5.55112e-17
197 2 198.959 146.056 -5.55112e-17
198 2 105.908 106.693 -5.55112e-17
199 2 109.88 189.845 -5.55112e-17
200 2 6.86891 143.465 -5.55112e-17
201 2 51.6425 145.348 -5.55112e-17
202 1 37.4265 29.2784 -5.55112e-17
203 1 65.6942 165.465 -5.55112e-17
204 2 24.6463 50.9878 -5.55112e-17
205 2 105.883 118.163 -5.55112e-17
206 2 121.471 170.872 -5.55112e-17
207 1 69.0065 126.552 -5.55112e-17
208 2 184.986 72.6215 -5.55112e-17
209 2 24.5696 84.1388 -5.55112e-17
210 1 92.8992 195.685 -5.55112e-17
211 1 171.918 167.701 -5.55112e-17
212 1 83.2611 146.656 -5.55112e-17
213 1 169.454 22.8619 -5.55112e-17
214 2 108.236 87.0699 -5.55112e-17
215 1 44.7982 151.029 -5.55112e-17
216 1 205.76 126.559 -5.55112e-17
217 1 184.97 24.0839 -5.55112e-17
218 2 44.3585 12.0793 -5.55112e-17
219 2 120.259 96.1707 -5.55112e-17
220 1 98.7151 163.035 -5.55112e-17
221 2 137.181 20.4871 -5.55112e-17
222 1 80.6907 173.97 -5.55112e-17
223 1 64.6493 54.4616 -5.55112e-17
224 2 54.5032 209.02 -5.55112e-17
225 2 109.135 213.08 -5.55112e-17
226 1 93.3411 121.048 -5.55112e-17
227 2 11.9558 15.3185 -5.55112e-17
228 2 91.5888 58.3854 -5.55112e-17
229 1 38.7498 131.562 -5.55112e-17
230 1 9.89196 162.271 -5.55112e-17
231 2 50.2373 33.5631 -5.55112e-17
232 1 58.7991 144.306 -5.55112e-17
233 2 203.849 197.307 -5.55112e-17
234 1 2.20444 134.335 -5.55112e-17
235 1 197.369 34.4547 -5.55112e-17
236 2 142.187 22.625 -5.55112e-17
237 2 41.5274 24.4185 -5.55112e-17
238 2 78.0514 86.0359 -5.55112e-17
239 1 92.5207 125.985 -5.55112e-17
240 1 64.2964 144.038 -5.55112e-17
241 2 49.3604 85.9759 -5.55112e-17
242 1 149.902 181.13 -5.55112e-17
243 2 16.3129 51.729 -5.55112e-17
244 2 168.561 163.033 -5.55112e-17
245 1 31.8925 96.4693 -5.55112e-17
246 2 178.09 182.486 -5.55112e-17
247 2 9.47725 154.14 -5.55112e-17
248 1 175.931 154.64 -5.55112e-17
249 1 188.86 79.1041 -5.55112e-17
250 1 19.3454 77.6557 -5.55112e-17
251 2 98.4485 69.1289 -5.55112e-17
252 1 202.427 167.69 -5.55112e-17
253 2 195.607 177.507 -5.55112e-17
254 2 27.0403 3.165 -5.55112e-17
255 2 75.7839 204.423 -5.55112e-17
256 1 114.979 124.49 -5.55112e-17
257 2 29.3389 121.195 -5.55112e-17
258 1 74.034 214.919 -5.55112e-17
259 2 95.2245 85.0074 -5.55112e-17
260 1 156.61 179.336 -5.55112e-17
261 2 116.449 116.691 -5.55112e-17
262 2 31.2191 76.5313 -5.55112e-17
263 2 136.133 11.7895 -5.55112e-17
264 1 157.957 8.95282 -5.55112e-17
265 1 157.261 167.815 -5.55112e-17
266 1 182.51 72.04 -5.55112e-17
267 2 178.42 170.133 -5.55112e-17
268 1 127.211 93.5393 -5.55112e-17
269 2 196.754 52.6149 -5.55112e-17
270 2 120.114 183.857 -5.55112e-17
271 2 81.8146 41.9276 -5.55112e-17
272 1 22.6181 203.359 -5.55112e-17
273 1 54.196 92.2829 -5.55112e-17
274 1 154.503 35.5049 -5.55112e-17
275 1 165.456 106.62 -5.55112e-17
276 1 57.3194 13.6442 -5.55112e-17
277 1 54.7804 57.3659 -5.55112e-17
278 2 50.0792 140.33 -5.55112e-17
279 2 135.857 128.786 -5.55112e-17
280 1 77.1028 7.195 -5.55112e-17
281 2 147.67 134.735 -5.55112e-17
282 2 194.013 68.8407 -5.55112e-17
283 2 134.952 78.0885 -5.55112e-17
284 1 155.234 105.763 -5.55112e-17
285 1 40.4223 197.983 -5.55112e-17
286 2 100.611 205.964 -5.55112e-17
287 2 121.7 102.321 -5.55112e-17
288 1 161.538 183.707 -5.55112e-17
289 2 119.2 22.2329 -5.55112e-17
290 1 205.134 119.389 -5.55112e-17
291 2 188.095 89.4392 -5.55112e-17
292 1 162.535 10.7474 -5.55112e-17
293 1 199.592 42.7529 -5.55112e-17
294 1 112.907 179.678 -5.55112e-17
295 2 14.025 77.9538 -5.55112e-17
296 1 127.983 31.8339 -5.55112e-17
297 1 12.3904 28.5354 -5.55112e-17
298 2 30.089 9.03327 -5.55112e-17
299 1 96.9363 49.8904 -5.55112e-17
300 2 31.2405 5.58593 -5.55112e-17
301 2 156.619 174.092 -5.55112e-17
302 2 87.9254 104.815 -5.55112e-17
303 1 34.8276 129.362 -5.55112e-17
304 1 124.632 148.011 -5.55112e-17
305 1 214.929 176.502 -5.55112e-17
306 2 175.284 89.436 -5.55112e-17
307 2 69.8636 54.6866 -5.55112e-17
308 2 93.5871 62.2085 -5.55112e-17
309 1 211.724 197.109 -5.55112e-17
310 1 194.101 163.875 -5.55112e-17
311 1 104.545 76.5433 -5.55112e-17
312 2 191.323 150.489 -5.55112e-17
313 2 47.241 131.201 -5.55112e-17
314 1 171.32 78.5948 -5.55112e-17
315 2 154.651 16.6191 -5.55112e-17
316 1 127.389 161.545 -5.55112e-17
317 1 52.7017 178.122 -5.55112e-17
318 1 26.4341 187.148 -5.55112e-17
319 2 126.994 187.698 -5.55112e-17
320 1 176.1 128.214 -5.55112e-17
321 1 10.5174 130.181 -5.55112e-17
322 1 105.415 51.9035 -5.55112e-17
323 2 152.323 190.165 -5.55112e-17
324 2 145.648 187.766 -5.55112e-17
325 2 40.6225 138.874 -5.55112e-17
326 1 11.238 46.295 -5.55112e-17
327 1 189.064 106.383 -5.55112e-17
328 2 170.664 83.163 -5.55112e-17
329 2 199.321 7.73074 -5.55112e-17
330 2 159.165 149.976 -5.55112e-17
331 2 35.6827 154.414 -5.55112e-17
332 2 28.7758 81.1014 -5.55112e-17
333 2 58.9619 152.35 -5.55112e-17
334 2 110.892 172.137 -5.55112e-17
335 1 107.916 27.3853 -5.55112e-17
336 2 86.8395 191.792 -5.55112e-17
337 2 183.264 183.659 -5.55112e-17
338 1 26.7077 67.9007 -5.55112e-17
339 2 13.1254 188.492 -5.55112e-17
340 2 4.55637 35.6182 -5.55112e-17
341 2 188.13 150.185 -5.55112e-17
342 2 177.566 147.182 -5.55112e-17
343 2 79.3619 171.713 -5.55112e-17
344 1 177.023 156.714 -5.55112e-17
345 2 176.751 15.8034 -5.55112e-17
346 2 59.2867 38.9981 -5.55112e-17
347 1 42.5843 90.4673 -5.55112e-17
348 1 150.526 64.9885 -5.55112e-17
349 2 157.189 154.885 -5.55112e-17
350 2 187.206 17.0831 -5.55112e-17
351 1 116.697 68.468 -5.55112e-17
352 1 184.786 150.337 -5.55112e-17
353 2 185.165 77.0611 -5.55112e-17
354 2 88.2723 175.921 -5.55112e-17
355 1 141.335 62.0674 -5.55112e-17
356 2 114.772 131.715 -5.55112e-17
357 1 48.2345 31.6984 -5.55112e-17
358 1 145.73 190.047 -5.55112e-17
359 1 166.13 137.089 -5.55112e-17
360 1 152.383 66.7739 -5.55112e-17
361 2 6.82261 115.813 -5.55112e-17
362 2 112.144 11.2662 -5.55112e-17
363 1 141.342 80.2569 -5.55112e-17
364 2 121.151 65.1764 -5.55112e-17
365 1 178.9 121.034 -5.55112e-17
366 1 58.7489 113.724 -5.55112e-17
367 1 215.563 26.6066 -5.55112e-17
368 1 178.58 141.538 -5.55112e-17
369 2 151.769 34.5127 -5.55112e-17
370 1 206.585 30.9096 -5.55112e-17
371 2 93.4104 170.309 -5.55112e-17
372 1 214.169 133.532 -5.55112e-17
373 2 114.58 216.798 -5.55112e-17
374 2 53.3506 51.9798 -5.55112e-17
375 1 111.446 187.464 -5.55112e-17
376 1 80.6732 155.781 -5.55112e-17
377 2 13.943 47.7791 -5.55112e-17
378 2 159.112 116.013 -5.55112e-17
379 2 189.36 58.6031 -5.55112e-17
380 1 63.0933 188.708 -5.55112e-17
381 1 146.705 85.016 -5.55112e-17
382 1 147 131.477 -5.55112e-17
383 1 165.886 182.524 -5.55112e-17
384 2 50.0184 58.2651 -5.55112e-17
385 1 151.961 96.5616 -5.55112e-17
386 2 25.5764 142.305 -5.55112e-17
387 1 144.858 101.638 -5.55112e-17
388 1 98.5904 98.7857 -5.55112e-17
389 2 53.0795 9.97843 -5.55112e-17
390 1 44.91 35.6659 -5.55112e-17
391 1 215.723 88.3766 -5.55112e-17
392 2 213.732 123.035 -5.55112e-17
393 2 152.953 182.253 -5.55112e-17
394 1 25.1492 193.928 -5.55112e-17
395 1 3.96469 199.541 -5.55112e-17
396 2 13.2667 31.6505 -5.55112e-17
397 1 131.923 2.6554 -5.55112e-17
398 2 149.879 32.295 -5.55112e-17
399 2 114.7 39.7024 -5.55112e-17
400 2 57.4116 41.1339 -5.55112e-17
401 2 192.244 110.572 -5.55112e-17
402 1 72.4297 191.934 -5.55112e-17
403 1 212.531 106.856 -5.55112e-17
404 2 11.0921 65.8236 -5.55112e-17
405 1 96.1598 128.608 -5.55112e-17
406 2 37.0604 201.633 -5.55112e-17
407 1 140.354 68.6376 -5.55112e-17
408 1 195.516 39.8196 -5.55112e-17
409 2 133.836 131.252 -5.55112e-17
410 2 42.2576 65.2221 -5.55112e-17
411 1 53.7895 171.491 -5.55112e-17
412 1 169.693 11.6174 -5.55112e-17
413 1 96.5513 198.338 -5.55112e-17
414 2 41.6272 189.83 -5.55112e-17
415 1 35.6064 141.66 -5.55112e-17
416 1 24.0214 196.476 -5.55112e-17
417 2 6.14689 55.1959 -5.55112e-17
418 2 181.646 81.5649 -5.55112e-17
419 2 63.6875 146.923 -5.55112e-17
420 2 112.754 16.2626 -5.55112e-17
421 1 129.457 141.629 -5.55112e-17
422 1 110.79 150.456 -5.55112e-17
423 2 161.639 168.176 -5.55112e-17
424 2 31.8669 122.812 -5.55112e-17
425 2 157.406 171.123 -5.55112e-17
426 1 35.173 192.333 -5.55112e-17
427 2 131.045 139.67 -5.55112e-17
428 1 76.7521 56.5625 -5.55112e-17
429 2 153.435 150.51 -5.55112e-17
430 2 175.09 197.158 -5.55112e-17
431 1 142.968 44.2139 -5.55112e-17
432 2 105.566 25.8585 -5.55112e-17
433 1 176.193 149.587 -5.55112e-17
434 1 60.8975 150.136 -5.55112e-17
435 1 216.928 19.7816 -5.55112e-17
436 2 87.8968 144.126 -5.55112e-17
437 2 9.63826 6.47771 -5.55112e-17
438 2 194.887 171.941 -5.55112e-17
439 2 207.652 80.0347 -5.55112e-17
440 2 38.3417 146.27 -5.55112e-17
441 1 17.4175 33.7624 -5.55112e-17
442 1 213.71 7.40857 -5.55112e-17
443 2 197.668 62.3926 -5.55112e-17
444 1 122.895 173.133 -5.55112e-17
445 1 78.1952 14.8587 -5.55112e-17
446 2 32.2086 81.7042 -5.55112e-17
447 2 164.717 19.486 -5.55112e-17
448 2 140.236 122.507 -5.55112e-17
449 1 161.862 32.2535 -5.55112e-17
450 1 144.192 38.9661 -5.55112e-17
451 1 95.0891 179.907 -5.55112e-17
452 2 121.283 20.4088 -5.55112e-17
453 1 32.3596 35.1129 -5.55112e-17
454 1 147.319 97.3496 -5.55112e-17
455 2 116.594 18.8137 -5.55112e-17
456 1 98.6719 105.802 -5.55112e-17
457 2 105.794 58.1248 -5.55112e-17
458 2 29.3806 106.328 -5.55112e-17
459 2 184.959 136.085 -5.55112e-17
460 1 162.856 48.8085 -5.55112e-17
461 1 172.67 68.8118 -5.55112e-17
462 1 35.8553 199.557 -5.55112e-17
463 2 99.0246 15.6279 -5.55112e-17
464 2 202.806 112.871 -5.55112e-17
465 1 118.721 17.0334 -5.55112e-17
466 2 41.0595 2.11913 -5.55112e-17
467 2 71.0876 10.0435 -5.55112e-17
468 2 139.388 154.569 -5.55112e-17
469 2 19.3765 208.273 -5.55112e-17
470 2 57.3141 127.163 -5.55112e-17
471 2 105.163 112.658 -5.55112e-17
472 2 90.7821 166.649 -5.55112e-17
473 2 99.5256 5.4867 -5.55112e-17
474 2 77.5406 208.67 -5.55112e-17
475 1 169.825 76.1732 -5.55112e-17
476 2 15.7263 67.2962 -5.55112e-17
477 1 11.0562 8.63737 -5.55112e-17
478 1 99.2105 124.614 -5.55112e-17
479 2 55.3613 129.856 -5.55112e-17
480 1 11.2725 134.707 -5.55112e-17
481 1 34.3837 151.314 -5.55112e-17
482 2 114.469 13.441 -5.55112e-17
483 1 159.07 96.9509 -5.55112e-17
484 1 48.9658 183.61 -5.55112e-17
485 2 59.1521 213.618 -5.55112e-17
486 1 124.683 177.972 -5.55112e-17
487 1 69.4641 174.861 -5.55112e-17
488 1 154.59 65.8434 -5.55112e-17
489 1 125.138 194.954 -5.55112e-17
490 1 207.861 188.557 -5.55112e-17
491 1 117.202 207.965 -5.55112e-17
492 2 190.064 137.562 -5.55112e-17
493 1 175.636 13.6189 -5.55112e-17
494 2 82.7053 29.9792 -5.55112e-17
495 1 128.455 139.625 -5.55112e-17
496 1 56.9244 118.784 -5.55112e-17
497 1 98.4134 133.944 -5.55112e-17
498 2 111.65 203.864 -5.55112e-17
499 2 191.778 49.1663 -5.55112e-17
500 2 7.56867 140.476 -5.55112e-17
501 2 68.0888 124.265 -5.55112e-17
502 2 200.33 100.722 -5.55112e-17
503 2 59.2011 193.538 -5.55112e-17
504 2 185.392 38.7003 -5.55112e-17
505 2 65.139 13.9093 -5.55112e-17
506 1 62.7957 62.5799 -5.55112e-17
507 2 90.855 107.518 -5.55112e-17
508 1 121.947 208.211 -5.55112e-17
509 1 3.40375 37.8864 -5.55112e-17
510 1 20.9172 138.326 -5.55112e-17
511 2 45.2958 96.0275 -5.55112e-17
512 1 178.404 210.262 -5.55112e-17
513 2 122.457 13.002 -5.55112e-17
514 2 195.785 120.762 -5.55112e-17
515 1 108.292 200.148 -5.55112e-17
516 2 173.063 104.612 -5.55112e-17
517 1 171.925 0.448226 -5.55112e-17
518 2 63.1096 196.542 -5.55112e-17
519 1 86.877 160.74 -5.55112e-17
520 2 86.3512 19.7962 -5.55112e-17
521 2 13.603 165.752 -5.55112e-17
522 1 69.9072 39.2513 -5.55112e-17
523 1 165.168 10.6838 -5.55112e-17
524 2 129.552 181.908 -5.55112e-17
525 2 80.7002 186.668 -5.55112e-17
526 2 72.9816 77.5813 -5.55112e-17
527 1 23.4148 81.2991 -5.55112e-17
528 1 4.3199 98.0823 -5.55112e-17
529 2 202.64 15.2464 -5.55112e-17
530 2 200.756 45.292 -5.55112e-17
531 2 14.1445 88.4384 -5.55112e-17
532 1 163.7 60.6649 -5.55112e-17
533 2 6.03539 215.611 -5.55112e-17
534 1 166.613 167.995 -5.55112e-17
535 1 108.417 105.95 -5.55112e-17
536 2 35.1109 207.136 -5.55112e-17
537 1 41.466 11.8086 -5.55112e-17
538 1 59.1488 84.2612 -5.55112e-17
539 2 8.71385 56.8983 -5.55112e-17
540 1 208.813 39.6703 -5.55112e-17
541 1 153.581 107.689 -5.55112e-17
542 1 20.1264 203.26 -5.55112e-17
543 2 11.7496 53.7611 -5.55112e-17
544 1 125.882 2.49724 -5.55112e-17
545 1 167.306 198.789 -5.55112e-17
546 2 179.907 79.0058 -5.55112e-17
547 1 15.554 149.555 -5.55112e-17
548 1 91.6063 66.078 -5.55112e-17
549 2 142.335 11.9189 -5.55112e-17
550 2 30.7463 99.033 -5.55112e-17
551 2 77.7985 130.974 -5.55112e-17
552 1 163.822 191.107 -5.55112e-17
553 2 124.112 180.603 -5.55112e-17
554 2 206.302 6.94504 -5.55112e-17
555 2 39.6744 101.613 -5.55112e-17
556 1 109.664 67.5872 -5.55112e-17
557 1 206.139 186.459 -5.55112e-17
558 1 26.4872 167.548 -5.55112e-17
559 2 70.7248 105.198 -5.55112e-17
560 2 100.084 86.9854 -5.55112e-17
561 2 86.1879 102.79 -5.55112e-17
562 2 135.843 56.4041 -5.55112e-17
563 1 202.869 100.254 -5.55112e-17
564 2 99.3915 72.238 -5.55112e-17
565 2 197.069 47.6534 -5.55112e-17
566 2 95.5627 149.239 -5.55112e-17
567 1 122.797 25.9352 -5.55112e-17
568 1 34.5404 52.0516 -5.55112e-17
569 2 51.105 40.7288 -5.55112e-17
570 2 90.0624 199.679 -5.55112e-17
571 2 191.056 62.8237 -5.55112e-17
572 1 179.512 38.7313 -5.55112e-17
573 2 128.899 66.5963 -5.55112e-17
574 2 68.0989 157.844 -5.55112e-17
575 1 33.55 22.9875 -5.55112e-17
576 1 100.314 40.1874 -5.55112e-17
577 1 188.042 185.061 -5.55112e-17
578 1 194.721 24.6722 -5.55112e-17
579 2 159.882 17.3637 -5.55112e-17
580 1 81.1271 195.727 -5.55112e-17
581 1 0.63298 215.919 -5.55112e-17
582 2 113.326 36.7589 -5.55112e-17
583 2 12.5044 58.2527 -5.55112e-17
584 2 126.253 168.593 -5.55112e-17
585 1 205.25 35.7819 -5.55112e-17
586 1 156.153 93.2996 -5.55112e-17
587 1 67.5218 32.0656 -5.55112e-17
588 2 81.1111 82.4267 -5.55112e-17
589 1 158.843 69.2112 -5.55112e-17
590 2 4.62491 147.835 -5.55112e-17
591 2 56.0762 60.0929 -5.55112e-17
592 1 59.681 20.7078 -5.55112e-17
593 1 37.4328 215.657 -5.55112e-17
594 1 45.8507 51.9211 -5.55112e-17
595 1 53.7202 123.596 -5.55112e-17
596 2 7.33663 17.3705 -5.55112e-17
597 2 66.4338 126.763 -5.55112e-17
598 2 146.355 41.1012 -5.55112e-17
599 2 34.5538 41.9236 -5.55112e-17
600 2 63.4609 104.529 -5.55112e-17
601 1 58.0792 160.153 -5.55112e-17
602 1 172.095 203.407 -5.55112e-17
603 2 31.1716 144.388 -5.55112e-17
604 1 100.047 77.2833 -5.55112e-17
605 2 88.9517 45.4361 -5.55112e-17
606 2 130.227 100.608 -5.55112e-17
607 2 39.4084 208.546 -5.55112e-17
608 2 79.5779 115.721 -5.55112e-17
609 1 58.4829 59.6111 -5.55112e-17
610 2 80.6004 207.493 -5.55112e-17
611 1 147.977 15.5916 -5.55112e-17
612 1 207.239 184.104 -5.55112e-17
613 2 68.0204 64.7781 -5.55112e-17
614 1 204.227 123.265 -5.55112e-17
615 1 52.3474 54.1608 -5.55112e-17
616 2 26.7837 123.525 -5.55112e-17
617 1 46.7775 37.275 -5.55112e-17
618 1 50.4646 150.317 -5.55112e-17
619 1 75.0151 109.462 -5.55112e-17
620 2 99.5052 198.385 -5.55112e-17
621 2 202.236 60.4082 -5.55112e-17
622 2 184.439 174.752 -5.55112e-17
623 2 140.335 35.361 -5.55112e-17
624 1 106.586 174.086 -5.55112e-17
625 2 132.985 49.0387 -5.55112e-17
626 1 116.965 191.791 -5.55112e-17
627 2 212.355 101.367 -5.55112e-17
628 1 39.7704 191.598 -5.55112e-17
629 1 159.815 120.496 -5.55112e-17
630 2 21.8172 35.347 -5.55112e-17
631 2 218.113 121.286 -5.55112e-17
632 2 34.0128 12.5134 -5.55112e-17
633 2 47.2319 67.3515 -5.55112e-17
634 2 0.917906 191.805 -5.55112e-17
635 2 92.4991 150.18 -5.55112e-17
636 1 60.4543 23.2171 -5.55112e-17
637 1 89.345 157.211 -5.55112e-17
638 1 128.77 20.7197 -5.55112e-17
639 2 135.085 111.984 -5.55112e-17
640 2 28.9638 166.265 -5.55112e-17
641 1 78.1871 75.7912 -5.55112e-17
642 2 192.465 8.37262 -5.55112e-17
643 1 159.434 125.189 -5.55112e-17
644 2 65.2905 133.899 -5.55112e-17
645 2 103.702 189.96 -5.55112e-17
646 1 31.595 210.334 -5.55112e-17
647 2 166.273 122.882 -5.55112e-17
648 2 106.155 103.696 -5.55112e-17
649 1 24.9448 23.1622 -5.55112e-17
650 1 122.14 114.808 -5.55112e-17
651 1 106.771 40.5717 -5.55112e-17
652 2 93.2358 105.739 -5.55112e-17
653 2 53.9856 147.169 -5.55112e-17
654 1 35.636 57.0908 -5.55112e-17
655 1 7.24415 158.603 -5.55112e-17
656 1 32.6514 20.641 -5.55112e-17
657 1 30.914 115.264 -5.55112e-17
658 2 204.454 159.477 -5.55112e-17
659 2 149.101 83.7647 -5.55112e-17
660 1 25.9826 52.9863 -5.55112e-17
661 2 104.223 149.328 -5.55112e-17
662 2 111.083 135.515 -5.55112e-17
663 1 4.72964 33.1729 -5.55112e-17
664 1 68.3374 76.5662 -5.55112e-17
665 1 140.95 208.244 -5.55112e-17
666 1 174.211 177.382 -5.55112e-17
667 1 123.582 135.241 -5.55112e-17
668 1 97.3575 136.354 -5.55112e-17
669 1 202.307 39.2862 -5.55112e-17
670 2 192.705 33.3334 -5.55112e-17
671 1 33.121 84.0456 -5.55112e-17
672 1 65.1411 69.3353 -5.55112e-17
673 2 107.926 60.2914 -5.55112e-17
674 2 174.612 66.5005 -5.55112e-17
675 2 95.9956 32.3617 -5.55112e-17
676 1 107.581 153.812 -5.55112e-17
677 2 177.031 77.2203 -5.55112e-17
678 1 188.364 114.095 -5.55112e-17
679 1 40.0823 216.144 -5.55112e-17
680 2 215.142 51.8199 -5.55112e-17
681 1 33.5156 93.9759 -5.55112e-17
682 1 152.437 176.32 -5.55112e-17
683 2 83.0462 104.373 -5.55112e-17
684 1 9.72317 139.386 -5.55112e-17
685 1 57.3557 88.8337 -5.55112e-17
686 1 42.2997 186.836 -5.55112e-17
687 1 164.942 125.22 -5.55112e-17
688 1 29.4272 24.1134 -5.55112e-17
689 2 73.9795 92.1101 -5.55112e-17
690 1 24.9344 1.54642 -5.55112e-17
691 2 187.698 46.5929 -5.55112e-17
692 2 51.1644 176.386 -5.55112e-17
693 1 109.073 202.875 -5.55112e-17
694 2 53.1058 95.2806 -5.55112e-17
695 2 196.667 29.1129 -5.55112e-17
696 2 66.7241 172.155 -5.55112e-17
697 1 41.6405 31.757 -5.55112e-17
698 2 173.675 12.1197 -5.55112e-17
699 1 58.1036 191.453 -5.55112e-17
700 2 137.449 50.2153 -5.55112e-17
701 2 120.974 153.794 -5.55112e-17
702 1 116.706 119.523 -5.55112e-17
703 1 156.93 194.277 -5.55112e-17
704 1 13.114 102.677 -5.55112e-17
705 1 2.71149 51.0965 -5.55112e-17
706 1 158.702 129.494 -5.55112e-17
707 1 64.7861 109.857 -5.55112e-17
708 2 70.8967 32.1726 -5.55112e-17
709 1 111.048 137.937 -5.55112e-17
710 2 114.036 187.225 -5.55112e-17
711 2 13.7315 178.803 -5.55112e-17
712 1 45.7437 54.809 -5.55112e-17
713 1 200.851 27.2013 -5.55112e-17
714 2 136.696 104.026 -5.55112e-17
715 2 126.331 29.0133 -5.55112e-17
716 1 105.201 207.557 -5.55112e-17
717 1 211.786 72.0971 -5.55112e-17
718 2 100.161 182.267 -5.55112e-17
719 1 4.26656 118.341 -5.55112e-17
720 2 216.149 6.97136 -5.55112e-17
721 2 17.0591 126.406 -5.55112e-17
722 2 142.86 190.116 -5.55112e-17
723 2 90.3162 136.505 -5.55112e-17
724 2 201.522 191.697 -5.55112e-17
725 2 19.9638 193.119 -5.55112e-17
726 2 202.587 74.3025 -5.55112e-17
727 2 117.717 65.8677 -5.55112e-17
728 1 195.26 61.2066 -5.55112e-17
729 2 128.797 213.64 -5.55112e-17
730 2 199.959 136.434 -5.55112e-17
731 1 84.8188 41.8237 -5.55112e-17
732 2 32.2861 195.724 -5.55112e-17
733 2 181.455 174.136 -5.55112e-17
734 2 171.437 66.5785 -5.55112e-17
735 2 82.6905 36.4947 -5.55112e-17
736 1 52.2472 45.031 -5.55112e-17
737 2 153.783 115.05 -5.55112e-17
738 2 130.85 120.209 -5.55112e-17
739 2 120.541 138.172 -5.55112e-17
740 2 50.1131 143.113 -5.55112e-17
741 2 26.7783 38.7008 -5.55112e-17
742 1 68.3648 183.47 -5.55112e-17
743 2 212.541 215.781 -5.55112e-17
744 1 172.434 29.6392 -5.55112e-17
745 2 33.105 50.1384 -5.55112e-17
746 1 21.1625 217.481 -5.55112e-17
747 1 44.7068 215.486 -5.55112e-17
748 2 208.569 186.067 -5.55112e-17
749 1 107.308 8.62524 -5.55112e-17
750 1 75.073 106.866 -5.55112e-17
751 1 23.924 205.49 -5.55112e-17
752 2 151.233 149.099 -5.55112e-17
753 1 21.0263 196.459 -5.55112e-17
754 2 110.934 92.164 -5.55112e-17
755 1 167.775 42.0457 -5.55112e-17
756 2 117.745 124.329 -5.55112e-17
757 1 205.358 154.818 -5.55112e-17
758 2 84.7136 32.2901 -5.55112e-17
759 1 110.552 65.3292 -5.55112e-17
760 1 158.509 55.6782 -5.55112e-17
761 2 51.2973 170.698 -5.55112e-17
762 1 209.825 195.577 -5.55112e-17
763 2 0.341748 195.06 -5.55112e-17
764 2 144.616 193.045 -5.55112e-17
765 1 164.119 98.4672 -5.55112e-17
766 2 101.23 37.6192 -5.55112e-17
767 2 167.928 180.643 -5.55112e-17
768 2 6.05392 75.2725 -5.55112e-17
769 2 110.96 215.297 -5.55112e-17
770 1 213.138 183.745 -5.55112e-17
771 1 214.401 142.82 -5.55112e-17
772 1 192.786 43.9789 -5.55112e-17
773 2 215.971 118.102 -5.55112e-17
774 1 2.6295 111.39 -5.55112e-17
775 1 194.768 112.23 -5.55112e-17
776 2 51.9698 112.116 -5.55112e-17
777 2 166.486 118.043 -5.55112e-17
778 1 145.156 182.31 -5.55112e-17
779 1 18.8716 43.0938 -5.55112e-17
780 2 94.3991 27.6433 -5.55112e-17
781 1 211.628 42.6951 -5.55112e-17
782 2 63.5212 107.782 -5.55112e-17
783 1 8.35965 199.182 -5.55112e-17
784 2 111.559 118.309 -5.55112e-17
785 1 142.292 144.499 -5.55112e-17
786 1 15.8019 45.7735 -5.55112e-17
787 2 64.8224 100.239 -5.55112e-17
788 2 69.3668 131.679 -5.55112e-17
789 2 168.367 78.1172 -5.55112e-17
790 2 127.68 98.5272 -5.55112e-17
791 2 24.1216 14.5721 -5.55112e-17
792 1 68.0915 81.1988 -5.55112e-17
793 1 12.189 201.806 -5.55112e-17
794 2 108.495 25.192 -5.55112e-17
795 2 203.765 105.159 -5.55112e-17
796 1 28.1881 28.1683 -5.55112e-17
797 1 201.475 9.69646 -5.55112e-17
798 1 134.672 161.302 -5.55112e-17
799 2 214.675 57.6013 -5.55112e-17
800 1 127.712 16.4167 -5.55112e-17
801 2 60.9749 9.77522 -5.55112e-17
802 1 50.3533 83.8645 -5.55112e-17
803 1 205.359 157.131 -5.55112e-17
804 1 119.124 76.0893 -5.55112e-17
805 2 28.8546 178.056 -5.55112e-17
806 2 27.3021 213.953 -5.55112e-17
807 2 66.3995 11.2273 -5.55112e-17
808 2 96.7459 35.1646 -5.55112e-17
809 1 112.786 148.745 -5.55112e-17
810 2 173.596 107.952 -5.55112e-17
811 2 122.017 178.369 -5.55112e-17
812 1 74.6232 198.048 -5.55112e-17
813 1 35.5826 216.914 -5.55112e-17
814 1 149.025 52.2508 -5.55112e-17
815 1 197.443 131.926 -5.55112e-17
816 1 116.121 182.361 -5.55112e-17
817 2 145.387 140.421 -5.55112e-17
818 2 97.4011 26.967 -5.55112e-17
819 2 17.5751 14.2602 -5.55112e-17
820 1 189.985 192.449 -5.55112e-17
821 1 5.1114 157.542 -5.55112e-17
822 2 5.23971 30.8295 -5.55112e-17
823 1 137.645 17.9002 -5.55112e-17
824 1 106.374 4.08861 -5.55112e-17
825 1 216.849 167.016 -5.55112e-17
826 2 213.892 186.489 -5.55112e-17
827 2 156.313 197.127 -5.55112e-17
828 1 149.308 167.941 -5.55112e-17
829 2 211.011 15.3701 -5.55112e-17
830 1 117.416 108.315 -5.55112e-17
831 2 30.8817 126.113 -5.55112e-17
832 2 34.6619 126.889 -5.55112e-17
833 2 109.668 209.794 -5.55112e-17
834 1 57.9638 64.4575 -5.55112e-17
835 1 154.032 147.98 -5.55112e-17
836 1 188.69 81.5448 -5.55112e-17
837 2 58.2513 116.543 -5.55112e-17
838 2 141.001 42.6322 -5.55112e-17
839 1 168.638 113.535 -5.55112e-17
840 2 12.1773 157.921 -5.55112e-17
841 2 146.448 82.3896 -5.55112e-17
842 1 32.8825 46.0999 -5.55112e-17
843 1 160.519 76.7849 -5.55112e-17
844 2 13.6879 82.5744 -5.55112e-17
845 1 216.615 37.6857 -5.55112e-17
846 2 145.861 5.5761 -5.55112e-17
847 1 199.836 64.5078 -5.55112e-17
848 2 16.7957 178.995 -5.55112e-17
849 1 112.211 94.3317 -5.55112e-17
850 2 124.473 106.669 -5.55112e-17
851 2 30.1326 26.8477 -5.55112e-17
852 1 187.474 14.331 -5.55112e-17
853 1 186.425 121.095 -5.55112e-17
854 2 205.4 88.6713 -5.55112e-17
855 2 38.3097 74.4361 -5.55112e-17
856 1 24.8885 118.724 -5.55112e-17