units              metal
boundary           p p p
atom_style         atomic
read_data       ../../../data/T${T}.dat
read_data       ../../../data/T280.dat
ERROR: Cannot open file ../../../data/T280.dat: No such file or directory (src/read_data.cpp:367)
Last command: read_data       ../../../data/T${T}.dat
