ITEM: TIMESTEP
0
ITEM: NUMBER OF ATOMS
7200
ITEM: BOX BOUNDS xy xz yz pp pp pp
0.0000000000000000e+00 2.1900000000000000e+02 0.0000000000000000e+00
0.0000000000000000e+00 2.1900000000000000e+02 0.0000000000000000e+00
-3.6499999999999999e-01 3.6499999999999999e-01 0.0000000000000000e+00
ITEM: ATOMS id type x y z
1 1 43.2776 131.703 -5.55112e-17
2 1 196.842 115.387 -5.55112e-17
3 1 10.1997 173.003 -5.55112e-17
4 1 25.223 80.7742 -5.55112e-17
5 1 16.2371 154.297 -5.55112e-17
6 1 134.332 197.747 -5.55112e-17
7 1 60.5947 39.549 -5.55112e-17
8 2 150.542 92.5621 -5.55112e-17
9 1 204.735 20.3836 -5.55112e-17
10 2 62.0232 201.574 -5.55112e-17
11 1 122.203 218.619 -5.55112e-17
12 1 167.697 101.448 -5.55112e-17
13 2 61.7445 73.6914 -5.55112e-17
14 1 66.8123 19.6055 -5.55112e-17
15 1 131.703 101.223 -5.55112e-17
16 2 46.9447 174.75 -5.55112e-17
17 1 122.268 35.0343 -5.55112e-17
18 2 12.1929 56.7327 -5.55112e-17
19 1 104.651 59.5238 -5.55112e-17
20 1 146.14 123.238 -5.55112e-17
21 1 43.59 7.18552 -5.55112e-17
22 2 32.0787 137.545 -5.55112e-17
23 2 13.9262 51.9652 -5.55112e-17
24 1 156.743 115.909 -5.55112e-17
25 1 63.8407 185.394 -5.55112e-17
26 2 92.6686 97.5018 -5.55112e-17
27 1 178.264 193.759 -5.55112e-17
28 2 26.543 162.066 -5.55112e-17
29 1 77.6973 44.2935 -5.55112e-17
30 1 153.597 91.5945 -5.55112e-17
31 1 212.028 88.2889 -5.55112e-17
32 1 54.6114 113.223 -5.55112e-17
33 1 157.485 166.992 -5.55112e-17
34 1 42.3955 49.2443 -5.55112e-17
35 1 177.919 68.0379 -5.55112e-17
36 1 66.2784 93.2636 -5.55112e-17
37 2 121.746 144.749 -5.55112e-17
38 1 198.592 72.4542 -5.55112e-17
39 1 113.537 143.636 -5.55112e-17
40 1 147.897 160.062 -5.55112e-17
41 1 123.456 191.651 -5.55112e-17
42 1 98.7898 36.1677 -5.55112e-17
43 1 142.301 79.1957 -5.55112e-17
44 1 128.327 30.2353 -5.55112e-17
45 1 215.59 79.6793 -5.55112e-17
46 1 35.5986 205.713 -5.55112e-17
47 1 59.4095 158.983 -5.55112e-17
48 2 44.3572 66.1505 -5.55112e-17
49 1 61.5343 134.718 -5.55112e-17
50 1 46.3863 197.726 -5.55112e-17
51 1 182.322 33.5131 -5.55112e-17
52 1 202.583 116.329 -5.55112e-17
53 1 150.84 37.0362 -5.55112e-17
54 1 4.72748 145.34 -5.55112e-17
55 1 20.5827 45.2417 -5.55112e-17
56 1 111.614 132.629 -5.55112e-17
57 2 77.0044 210.16 -5.55112e-17
58 1 34.6516 40.6541 -5.55112e-17
59 1 11.9011 122.145 -5.55112e-17
60 2 154.551 137.851 -5.55112e-17
61 2 46.3454 190.161 -5.55112e-17
62 1 28.7118 152.474 -5.55112e-17
63 1 112.045 212.323 -5.55112e-17
64 1 136.758 41.5204 -5.55112e-17
65 1 207.968 117.683 -5.55112e-17
66 1 140.196 131.717 -5.55112e-17
67 1 95.8268 138.173 -5.55112e-17
68 1 56.4354 106.598 -5.55112e-17
69 1 123.735 188.786 -5.55112e-17
70 1 41.302 122.073 -5.55112e-17
71 1 181.12 131.06 -5.55112e-17
72 1 172.261 60.0203 -5.55112e-17
73 1 189.687 187.362 -5.55112e-17
74 1 207.095 16.6295 -5.55112e-17
75 2 95.5241 217.853 -5.55112e-17
76 1 13.2346 6.07438 -5.55112e-17
77 1 58.3799 35.0803 -5.55112e-17
78 1 118.569 113.141 -5.55112e-17
79 2 119.607 0.231441 -5.55112e-17
80 1 83.2159 117.205 -5.55112e-17
81 1 108.783 141.673 -5.55112e-17
82 1 25.1777 121.536 -5.55112e-17
83 2 114.623 180.991 -5.55112e-17
84 1 177.52 83.3643 -5.55112e-17
85 1 34.879 93.97 -5.55112e-17
86 1 115.535 139.325 -5.55112e-17
87 1 22.873 4.58512 -5.55112e-17
88 1 39.1677 40.1831 -5.55112e-17
89 2 45.9014 5.22762 -5.55112e-17
90 2 192.341 188.45 -5.55112e-17
91 1 155.104 95.6642 -5.55112e-17
92 2 153.852 8.99828 -5.55112e-17
93 1 141.722 26.0181 -5.55112e-17
94 2 172.498 13.0962 -5.55112e-17
95 1 36.8539 208.002 -5.55112e-17
96 1 150.404 85.027 -5.55112e-17
97 1 110.46 217.023 -5.55112e-17
98 1 121.822 51.006 -5.55112e-17
99 1 181.329 26.689 -5.55112e-17
100 1 152.285 2.25391 -5.55112e-17
101 1 114.072 8.64427 -5.55112e-17
102 1 30.5915 46.1837 -5.55112e-17
103 1 64.9491 88.489 -5.55112e-17
104 1 65.5326 116.348 -5.55112e-17
105 1 137.382 201.906 -5.55112e-17
106 1 80.0773 99.4855 -5.55112e-17
107 2 167.626 97.9754 -5.55112e-17
108 1 36.2588 214.404 -5.55112e-17
109 1 34.2763 89.3051 -5.55112e-17
110 1 96.5385 60.3087 -5.55112e-17
111 1 62.504 22.6995 -5.55112e-17
112 1 88.8287 131.3 -5.55112e-17
113 1 109.951 54.6953 -5.55112e-17
114 1 162.881 29.5453 -5.55112e-17
115 1 49.577 174.089 -5.55112e-17
116 2 209.781 146.63 -5.55112e-17
117 1 192.253 12.4136 -5.55112e-17
118 1 165.964 67.4688 -5.55112e-17
119 2 62.4806 110.358 -5.55112e-17
120 1 51.8645 208.651 -5.55112e-17
121 1 156.329 87.925 -5.55112e-17
122 1 107.869 210.743 -5.55112e-17
123 1 154.751 110.179 -5.55112e-17
124 1 160.554 197.032 -5.55112e-17
125 1 114.554 134.996 -5.55112e-17
126 1 97.2201 53.1398 -5.55112e-17
127 1 162.054 78.0224 -5.55112e-17
128 1 179.249 160.707 -5.55112e-17
129 1 8.95842 93.4076 -5.55112e-17
130 1 71.8091 128.852 -5.55112e-17
131 1 180.113 140.269 -5.55112e-17
132 2 203.27 213.096 -5.55112e-17
133 1 120.841 74.5051 -5.55112e-17
134 1 19.6099 94.5562 -5.55112e-17
135 1 79.5812 10.2377 -5.55112e-17
136 1 216.13 208.829 -5.55112e-17
137 1 100.586 137.077 -5.55112e-17
138 1 52.1745 214.284 -5.55112e-17
139 1 214.713 111.923 -5.55112e-17
140 2 146.567 180.928 -5.55112e-17
141 1 200.313 97.3778 -5.55112e-17
142 2 0.863004 40.1679 -5.55112e-17
143 1 118.656 78.7583 -5.55112e-17
144 2 41.3475 198.612 -5.55112e-17
145 1 183.412 101.205 -5.55112e-17
146 1 105.246 102.644 -5.55112e-17
147 1 121.094 154.685 -5.55112e-17
148 1 1.26203 205.69 -5.55112e-17
149 1 69.7174 23.3513 -5.55112e-17
150 1 40.8865 35.8076 -5.55112e-17
151 1 39.3493 107.031 -5.55112e-17
152 1 41.3412 105.196 -5.55112e-17
153 2 53.9023 8.2485 -5.55112e-17
154 1 140.931 134.19 -5.55112e-17
155 1 120.997 211.703 -5.55112e-17
156 2 64.6617 113.123 -5.55112e-17
157 1 210.123 103.239 -5.55112e-17
158 1 43.0476 34.4972 -5.55112e-17
159 1 1.54578 141.786 -5.55112e-17
160 1 22.4404 210.381 -5.55112e-17
161 1 3.24882 7.38877 -5.55112e-17
162 1 136.778 128.861 -5.55112e-17
163 1 36.963 39.1121 -5.55112e-17
164 1 167.563 52.3479 -5.55112e-17
165 1 125.274 158.98 -5.55112e-17
166 2 160.027 60.1571 -5.55112e-17
167 1 175.752 45.7254 -5.55112e-17
168 1 135.369 179.906 -5.55112e-17
169 1 4.55259 99.9902 -5.55112e-17
170 1 96.2292 168.451 -5.55112e-17
171 1 150.99 65.5432 -5.55112e-17
172 1 211.078 19.6736 -5.55112e-17
173 1 51.5487 155.058 -5.55112e-17
174 1 127.411 61.6045 -5.55112e-17
175 2 124.621 156.347 -5.55112e-17
176 1 105.755 66.9596 -5.55112e-17
177 2 61.0198 45.3441 -5.55112e-17
178 1 72.5684 77.6176 -5.55112e-17
179 1 166.726 167.513 -5.55112e-17
180 1 206.229 197.657 -5.55112e-17
181 1 157.385 181.383 -5.55112e-17
182 2 78.7017 22.7729 -5.55112e-17
183 1 73.0514 160.575 -5.55112e-17
184 1 169.141 87.9194 -5.55112e-17
185 2 165.837 5.48535 -5.55112e-17
186 2 201.221 120.956 -5.55112e-17
187 1 94.159 31.3231 -5.55112e-17
188 1 100.342 174.205 -5.55112e-17
189 1 123.021 184.041 -5.55112e-17
190 2 0.380391 164.019 -5.55112e-17
191 1 73.8509 154.416 -5.55112e-17
192 2 63.334 128.007 -5.55112e-17
193 2 72.8272 175.852 -5.55112e-17
194 1 21.736 145.272 -5.55112e-17
195 1 167.003 182.807 -5.55112e-17
196 1 171.959 183.337 -5.55112e-17
197 1 76.4587 71.2704 -5.55112e-17
198 2 15.1936 151.695 -5.55112e-17
199 1 211.431 55.5825 -5.55112e-17
200 1 82.0142 8.85558 -5.55112e-17
201 2 82.5959 112.452 -5.55112e-17
202 1 54.3428 212.508 -5.55112e-17
203 1 168.681 85.3129 -5.55112e-17
204 1 191.305 160.044 -5.55112e-17
205 2 196.481 84.6496 -5.55112e-17
206 1 97.8333 136.437 -5.55112e-17
207 1 105.793 36.5296 -5.55112e-17
208 1 38.8437 80.0194 -5.55112e-17
209 1 81.9452 0.924379 -5.55112e-17
210 1 8.80054 30.7521 -5.55112e-17
211 2 135.307 162.084 -5.55112e-17
212 1 120.211 122.475 -5.55112e-17
213 1 134.397 101.673 -5.55112e-17
214 1 75.8369 16.0892 -5.55112e-17
215 1 83.9566 210.153 -5.55112e-17
216 1 188.745 132.525 -5.55112e-17
217 1 128.804 172.397 -5.55112e-17
218 2 33.2339 158.506 -5.55112e-17
219 1 155.379 209.483 -5.55112e-17
220 2 109.453 57.8357 -5.55112e-17
221 1 211.681 58.7573 -5.55112e-17
222 1 172.065 112.498 -5.55112e-17
223 1 56.7052 206.103 -5.55112e-17
224 2 11.6304 186.147 -5.55112e-17
225 1 192.196 135.388 -5.55112e-17
226 1 161.874 181.697 -5.55112e-17
227 2 52.262 18.8317 -5.55112e-17
228 1 114.312 124.46 -5.55112e-17
229 1 70.0652 115.443 -5.55112e-17
230 1 187.495 143.825 -5.55112e-17
231 1 144.289 121.792 -5.55112e-17
232 1 216.438 74.3953 -5.55112e-17
233 1 109.474 93.9292 -5.55112e-17
234 1 101.751 10.5477 -5.55112e-17
235 1 34.8548 139.022 -5.55112e-17
236 1 37.6347 93.7554 -5.55112e-17
237 1 202.407 4.26733 -5.55112e-17
238 1 106.693 111.392 -5.55112e-17
239 2 33.5727 111.042 -5.55112e-17
240 1 116.029 217.904 -5.55112e-17
241 2 163.716 13.2793 -5.55112e-17
242 2 217.925 32.4544 -5.55112e-17
243 2 107.237 10.9691 -5.55112e-17
244 1 102.143 7.89184 -5.55112e-17
245 1 86.6347 61.3629 -5.55112e-17
246 1 135.657 111.257 -5.55112e-17
247 1 213.299 96.995 -5.55112e-17
248 1 86.2833 3.13222 -5.55112e-17
249 1 11.5601 73.9404 -5.55112e-17
250 2 156.094 37.4368 -5.55112e-17
251 1 154.44 211.787 -5.55112e-17
252 1 196.294 62.8524 -5.55112e-17
253 1 102.752 61.4501 -5.55112e-17
254 2 77.9262 187.15 -5.55112e-17
255 1 216.106 142.969 -5.55112e-17
256 1 81.6055 165.304 -5.55112e-17
257 1 216.232 149.923 -5.55112e-17
258 2 165.008 27.2963 -5.55112e-17
259 1 59.2662 145.465 -5.55112e-17
260 1 129.166 8.16021 -5.55112e-17
261 1 196.798 202.551 -5.55112e-17
262 1 51.9838 66.9031 -5.55112e-17
263 1 11.8777 8.05491 -5.55112e-17
264 1 173.381 41.7602 -5.55112e-17
265 1 165.947 32.7831 -5.55112e-17
266 1 120.973 16.447 -5.55112e-17
267 1 17.1224 68.8563 -5.55112e-17
268 1 26.3383 36.4003 -5.55112e-17
269 1 112.759 107.317 -5.55112e-17
270 1 120.123 110.965 -5.55112e-17
271 1 16.2874 83.1062 -5.55112e-17
272 1 164 201.166 -5.55112e-17
273 1 55.0354 192.77 -5.55112e-17
274 2 125.698 83.8843 -5.55112e-17
275 1 65.611 6.52923 -5.55112e-17
276 2 48.6683 42.202 -5.55112e-17
277 2 159.942 116.633 -5.55112e-17
278 1 52.4384 91.4926 -5.55112e-17
279 2 106.904 1.55506 -5.55112e-17
280 1 52.8862 30.5034 -5.55112e-17
281 1 148.424 21.4612 -5.55112e-17
282 1 155.94 14.0326 -5.55112e-17
283 1 111.173 142.771 -5.55112e-17
284 1 133.031 175.432 -5.55112e-17
285 1 37.5636 14.5793 -5.55112e-17
286 2 36.2284 217.541 -5.55112e-17
287 1 55.4334 138.512 -5.55112e-17
288 1 35.2479 50.9791 -5.55112e-17
289 1 77.2194 49.2741 -5.55112e-17
290 1 157.199 192.375 -5.55112e-17
291 1 163.91 130.729 -5.55112e-17
292 2 27.8399 179.357 -5.55112e-17
293 2 78.9983 177.61 -5.55112e-17
294 1 126.999 49.8076 -5.55112e-17
295 1 122.532 45.4791 -5.55112e-17
296 1 134.791 42.9633 -5.55112e-17
297 1 123.872 142.405 -5.55112e-17
298 1 142.143 210.689 -5.55112e-17
299 1 152.525 111.315 -5.55112e-17
300 2 70.7215 93.4103 -5.55112e-17
301 1 75.601 58.9398 -5.55112e-17
302 1 133.186 187.464 -5.55112e-17
303 2 203.401 56.6101 -5.55112e-17
304 2 167.52 141.937 -5.55112e-17
305 1 90.5202 95.4849 -5.55112e-17
306 1 37.4798 52.2649 -5.55112e-17
307 1 31.7934 108.425 -5.55112e-17
308 1 162.532 58.4712 -5.55112e-17
309 2 71.6207 170.374 -5.55112e-17
310 1 193.792 217.306 -5.55112e-17
311 1 81.0093 36.2594 -5.55112e-17
312 1 200.025 140.305 -5.55112e-17
313 2 141.216 70.167 -5.55112e-17
314 1 50.6307 137.229 -5.55112e-17
315 1 108.343 151.178 -5.55112e-17
316 1 74.8543 0.357298 -5.55112e-17
317 1 22.8999 89.9101 -5.55112e-17
318 1 116.158 7.01648 -5.55112e-17
319 1 55.8681 31.5372 -5.55112e-17
320 1 141.959 76.7655 -5.55112e-17
321 1 96.1242 205.707 -5.55112e-17
322 1 133.793 146.061 -5.55112e-17
323 1 196.632 100.636 -5.55112e-17
324 1 82.3737 29.4466 -5.55112e-17
325 1 164.794 140.719 -5.55112e-17
326 1 82.3993 151.455 -5.55112e-17
327 2 162.915 187.19 -5.55112e-17
328 1 170.915 37.8582 -5.55112e-17
329 2 9.23438 124.107 -5.55112e-17
330 1 216.988 125.941 -5.55112e-17
331 1 173.379 185.54 -5.55112e-17
332 2 119.804 95.4035 -5.55112e-17
333 1 43.0951 23.2215 -5.55112e-17
334 1 146.163 164.534 -5.55112e-17
335 1 7.74733 0.409389 -5.55112e-17
336 1 215.303 105.101 -5.55112e-17
337 1 94.6809 182.43 -5.55112e-17
338 1 159.912 57.1153 -5.55112e-17
339 1 121.134 26.7585 -5.55112e-17
340 1 155.288 165.696 -5.55112e-17
341 1 170.176 157.206 -5.55112e-17
342 1 120.134 158.85 -5.55112e-17
343 1 104.212 14.999 -5.55112e-17
344 1 41.9289 188.271 -5.55112e-17
345 1 36.3231 112.206 -5.55112e-17
346 1 23.6964 153.579 -5.55112e-17
347 1 92.7933 94.2005 -5.55112e-17
348 1 172.442 187.697 -5.55112e-17
349 1 194.068 73.8351 -5.55112e-17
350 2 96.0925 45.5921 -5.55112e-17
351 1 155.715 65.1096 -5.55112e-17
352 1 59.5725 154.174 -5.55112e-17
353 1 45.5076 140.418 -5.55112e-17
354 1 155.989 183.548 -5.55112e-17
355 1 36.3105 159.142 -5.55112e-17
356 1 28.7499 34.9533 -5.55112e-17
357 1 60.5359 139.191 -5.55112e-17
358 1 170.967 193.945 -5.55112e-17
359 1 166.121 151.965 -5.55112e-17
360 1 69.3728 38.3227 -5.55112e-17
361 1 80.7045 183.237 -5.55112e-17
362 1 173.244 198.099 -5.55112e-17
363 1 169.244 201.136 -5.55112e-17
364 2 115.712 108.759 -5.55112e-17
365 1 173.461 86.7708 -5.55112e-17
366 1 114.246 161.869 -5.55112e-17
367 1 180.367 13.6662 -5.55112e-17
368 1 199.133 193.202 -5.55112e-17
369 2 118.036 199.609 -5.55112e-17
370 1 207.402 216.156 -5.55112e-17
371 1 59.1417 141.452 -5.55112e-17
372 2 0.790789 91.4179 -5.55112e-17
373 2 192.615 1.12033 -5.55112e-17
374 1 149.317 90.2501 -5.55112e-17
375 1 8.80852 129.102 -5.55112e-17
376 1 18.8483 164.256 -5.55112e-17
377 1 27.0298 217.902 -5.55112e-17
378 1 72.6256 115.361 -5.55112e-17
379 1 16.7266 52.9315 -5.55112e-17
380 1 175.011 151.969 -5.55112e-17
381 1 22.5214 1.51833 -5.55112e-17
382 1 63.5826 34.416 -5.55112e-17
383 1 170.345 67.0787 -5.55112e-17
384 1 22.161 9.73632 -5.55112e-17
385 1 192.326 75.5384 -5.55112e-17
386 2 86.6786 43.9449 -5.55112e-17
387 1 143.247 208.581 -5.55112e-17
388 1 52.5867 57.1759 -5.55112e-17
389 1 212.041 162.72 -5.55112e-17
390 2 209.057 180.217 -5.55112e-17
391 2 40.5208 30.0934 -5.55112e-17
392 1 43.7034 1.16856 -5.55112e-17
393 1 210.537 22.5131 -5.55112e-17
394 1 101.569 108.53 -5.55112e-17
395 1 7.83573 15.4639 -5.55112e-17
396 1 197.344 150.67 -5.55112e-17
397 1 98.802 22.1108 -5.55112e-17
398 1 11.4375 192.566 -5.55112e-17
399 1 11.444 63.9094 -5.55112e-17
400 1 91.7953 199.948 -5.55112e-17
401 1 81.6111 176.277 -5.55112e-17
402 2 193.05 180.201 -5.55112e-17
403 1 217.674 48.0448 -5.55112e-17
404 1 62.2988 88.2753 -5.55112e-17
405 1 211.319 28.9984 -5.55112e-17
406 1 199.381 65.704 -5.55112e-17
407 2 7.54019 59.7591 -5.55112e-17
408 1 46.132 29.6686 -5.55112e-17
409 1 180.135 126.831 -5.55112e-17
410 1 4.23764 137.752 -5.55112e-17
411 1 159.492 158.308 -5.55112e-17
412 1 111.304 214.517 -5.55112e-17
413 1 63.7557 172.605 -5.55112e-17
414 1 40.1028 15.7568 -5.55112e-17
415 1 187.342 153.265 -5.55112e-17
416 1 69.5736 200.608 -5.55112e-17
417 1 157.254 82.7894 -5.55112e-17
418 2 183.259 18.1698 -5.55112e-17
419 1 106.006 150.531 -5.55112e-17
420 2 155.701 107.235 -5.55112e-17
421 1 90.7312 112.542 -5.55112e-17
422 1 146.332 17.0181 -5.55112e-17
423 2 163.57 35.3885 -5.55112e-17
424 1 142.665 147.702 -5.55112e-17
425 1 135.547 170 -5.55112e-17
426 1 144.135 119.218 -5.55112e-17
427 1 47.4557 67.7326 -5.55112e-17
428 1 58.6482 209.758 -5.55112e-17
429 1 193.489 83.241 -5.55112e-17
430 1 0.409559 53.2093 -5.55112e-17
431 1 144.747 0.639328 -5.55112e-17
432 1 162.392 53.3583 -5.55112e-17
433 1 102.172 154.253 -5.55112e-17
434 1 72.6204 32.1753 -5.55112e-17
435 1 181.178 149.644 -5.55112e-17
436 1 38.7818 37.3965 -5.55112e-17
437 1 190.282 113.496 -5.55112e-17
438 2 108.35 18.447 -5.55112e-17
439 1 66.6799 207.672 -5.55112e-17
440 1 214.675 158.956 -5.55112e-17
441 1 195.44 144.811 -5.55112e-17
442 1 43.4569 19.9677 -5.55112e-17
443 1 149.615 120.734 -5.55112e-17
444 1 1.92539 99.4689 -5.55112e-17
445 1 131.483 7.43857 -5.55112e-17
446 1 153.109 100.082 -5.55112e-17
447 1 38.5016 121.957 -5.55112e-17
448 1 77.4091 9.06205 -5.55112e-17
449 1 134.544 141.619 -5.55112e-17
450 1 147.382 190.668 -5.55112e-17
451 1 171.617 46.2308 -5.55112e-17
452 1 143.749 145.539 -5.55112e-17
453 1 179.037 184.385 -5.55112e-17
454 1 159.688 210.678 -5.55112e-17
455 1 102.496 72.8937 -5.55112e-17
456 1 168.494 33.8914 -5.55112e-17
457 1 100.3 113.232 -5.55112e-17
458 1 206.422 14.2917 -5.55112e-17
459 1 83.6757 70.4638 -5.55112e-17
460 1 36.7274 84.4153 -5.55112e-17
461 1 190.078 179.264 -5.55112e-17
462 1 189.244 120.762 -5.55112e-17
463 1 130.933 31.6509 -5.55112e-17
464 1 140.974 181.982 -5.55112e-17
465 1 121.294 164.764 -5.55112e-17
466 1 24.6565 218.87 -5.55112e-17
467 1 35.5878 86.7498 -5.55112e-17
468 1 159.219 217.877 -5.55112e-17
469 1 58.9275 84.4436 -5.55112e-17
470 1 79.1376 40.1161 -5.55112e-17
471 1 130.383 182.939 -5.55112e-17
472 1 45.2409 90.0944 -5.55112e-17
473 1 47.6107 114.993 -5.55112e-17
474 1 102.921 101.259 -5.55112e-17
475 1 186.135 165.017 -5.55112e-17
476 2 189.001 17.9085 -5.55112e-17
477 1 61.0293 62.39 -5.55112e-17
478 1 55.7099 128.805 -5.55112e-17
479 1 202.904 78.6497 -5.55112e-17
480 1 86.0611 26.0407 -5.55112e-17
481 1 8.40401 90.8887 -5.55112e-17
482 1 96.7197 160.458 -5.55112e-17
483 1 127.651 155.668 -5.55112e-17
484 2 91.8751 47.1945 -5.55112e-17
485 1 23.5844 98.6741 -5.55112e-17
486 1 82.6756 19.1614 -5.55112e-17
487 1 85.0876 197.889 -5.55112e-17
488 1 19.3979 106.529 -5.55112e-17
489 1 213.246 116.239 -5.55112e-17
490 1 208.531 82.3145 -5.55112e-17
491 1 205.625 104.728 -5.55112e-17
492 1 208.786 149.318 -5.55112e-17
493 1 188.099 14.9433 -5.55112e-17
494 1 208.636 21.0067 -5.55112e-17
495 1 198.074 87.569 -5.55112e-17
496 2 38.0921 191.521 -5.55112e-17
497 1 41.5115 0.0541415 -5.55112e-17
498 1 115.484 126.754 -5.55112e-17
499 2 140.572 207.831 -5.55112e-17
500 1 51.7094 15.3876 -5.55112e-17
501 2 136.946 196.892 -5.55112e-17
502 2 124.413 147.853 -5.55112e-17
503 1 166.361 175.929 -5.55112e-17
504 1 110.524 149.409 -5.55112e-17
505 1 132.05 27.3195 -5.55112e-17
506 1 30.056 140.19 -5.55112e-17
507 1 11.1553 145.7 -5.55112e-17
508 1 193.249 3.87642 -5.55112e-17
509 2 44.6001 86.7821 -5.55112e-17
510 2 145.383 133.593 -5.55112e-17
511 1 208.176 34.1507 -5.55112e-17
512 2 209.162 57.3326 -5.55112e-17
513 1 40.756 141.288 -5.55112e-17
514 1 50.6615 20.9598 -5.55112e-17
515 1 196.315 34.7507 -5.55112e-17
516 1 188.121 213.634 -5.55112e-17
517 1 104.459 118.468 -5.55112e-17
518 2 118.45 15.0522 -5.55112e-17
519 1 25.2218 23.9108 -5.55112e-17
520 2 215.558 35.5934 -5.55112e-17
521 1 89.1522 100.811 -5.55112e-17
522 1 17.9 29.5121 -5.55112e-17
523 1 20.3937 72.0382 -5.55112e-17
524 1 102.261 75.5646 -5.55112e-17
525 1 204.912 124.169 -5.55112e-17
526 1 191.779 63.3222 -5.55112e-17
527 1 77.4699 6.58401 -5.55112e-17
528 1 154.769 11.8039 -5.55112e-17
529 1 68.5116 149.486 -5.55112e-17
530 1 100.519 43.4723 -5.55112e-17
531 1 54.9198 184.849 -5.55112e-17
532 1 208.856 188.522 -5.55112e-17
533 1 140.125 148.219 -5.55112e-17
534 1 94.812 144.974 -5.55112e-17
535 1 9.03876 118.766 -5.55112e-17
536 1 183.234 126.447 -5.55112e-17
537 1 202.641 167.901 -5.55112e-17
538 1 170.124 81.0237 -5.55112e-17
539 1 90.4753 216.637 -5.55112e-17
540 1 107.51 89.7353 -5.55112e-17
541 1 45.9314 40.4728 -5.55112e-17
542 1 68.8804 216.854 -5.55112e-17
543 1 137.86 153.16 -5.55112e-17
544 1 145.464 195.366 -5.55112e-17
545 1 44.1464 126.808 -5.55112e-17
546 1 180.032 40.0232 -5.55112e-17
547 1 53.8535 168.04 -5.55112e-17
548 1 89.7944 195.925 -5.55112e-17
549 1 58.5972 62.2408 -5.55112e-17
550 2 157.973 151.098 -5.55112e-17
551 2 129.948 162.569 -5.55112e-17
552 2 98.0528 175.958 -5.55112e-17
553 1 126.985 37.3879 -5.55112e-17
554 1 89.1874 114.673 -5.55112e-17
555 2 62.5264 141.229 -5.55112e-17
556 1 138.831 21.9241 -5.55112e-17
557 1 77.6604 14.4908 -5.55112e-17
558 1 146.328 117.37 -5.55112e-17
559 1 188.303 46.0752 -5.55112e-17
560 1 143.472 62.6334 -5.55112e-17
561 1 151.483 177.863 -5.55112e-17
562 1 177.563 147.48 -5.55112e-17
563 2 159.418 139.804 -5.55112e-17
564 1 32.8124 71.3051 -5.55112e-17
565 1 61.4935 12.6285 -5.55112e-17
566 1 76.259 36.4199 -5.55112e-17
567 1 147.808 125.456 -5.55112e-17
568 1 26.5663 128.88 -5.55112e-17
569 1 97.8262 185.709 -5.55112e-17
570 1 112.058 134.986 -5.55112e-17
571 1 176.427 206.909 -5.55112e-17
572 1 66.4754 70.583 -5.55112e-17
573 1 179.306 76.262 -5.55112e-17
574 1 217.948 141.07 -5.55112e-17
575 1 10.859 116.889 -5.55112e-17
576 1 198.108 98.6508 -5.55112e-17
577 1 204.134 40.1668 -5.55112e-17
578 1 114.322 178.198 -5.55112e-17
579 1 5.26957 158.896 -5.55112e-17
580 1 101.228 139.503 -5.55112e-17
581 1 152.922 151.524 -5.55112e-17
582 1 77.788 81.0008 -5.55112e-17
583 1 161.166 176.307 -5.55112e-17
584 2 30.3171 122.021 -5.55112e-17
585 1 55.4281 173.7 -5.55112e-17
586 1 136.725 177.878 -5.55112e-17
587 1 77.6346 112.018 -5.55112e-17
588 1 21.43 203.109 -5.55112e-17
589 1 116.623 12.7784 -5.55112e-17
590 1 75.0932 2.87914 -5.55112e-17
591 1 5.61424 156.343 -5.55112e-17
592 1 51.3873 160.099 -5.55112e-17
593 1 210.957 182.318 -5.55112e-17
594 1 183.8 182.906 -5.55112e-17
595 1 84.0806 45.3162 -5.55112e-17
596 1 58.3259 40.7211 -5.55112e-17
597 2 179.83 206.648 -5.55112e-17
598 1 167.352 210.236 -5.55112e-17
599 1 209.371 171.735 -5.55112e-17
600 1 126.547 24.8331 -5.55112e-17
601 1 18.9269 142.18 -5.55112e-17
602 1 97.0076 32.055 -5.55112e-17
603 1 200.559 213.907 -5.55112e-17
604 1 95.9847 215.086 -5.55112e-17
605 2 87.3214 78.9951 -5.55112e-17
606 1 103.282 199.16 -5.55112e-17
607 2 141.111 167.718 -5.55112e-17
608 1 97.2029 78.1965 -5.55112e-17
609 1 12.0545 216.307 -5.55112e-17
610 1 204.286 150.524 -5.55112e-17
611 1 204.064 190.964 -5.55112e-17
612 1 2.62357 45.4657 -5.55112e-17
613 1 43.4305 157.983 -5.55112e-17
614 2 138.238 175.417 -5.55112e-17
615 1 136.306 26.2267 -5.55112e-17
616 1 198.187 130.309 -5.55112e-17
617 1 129.056 185.139 -5.55112e-17
618 1 206.461 2.58724 -5.55112e-17
619 1 195.521 81.5256 -5.55112e-17
620 1 140.956 114.479 -5.55112e-17
621 1 208.163 95.5461 -5.55112e-17
622 1 92.6629 218.442 -5.55112e-17
623 1 2.707 15.2257 -5.55112e-17
624 1 25.915 212.818 -5.55112e-17
625 1 205.372 161.164 -5.55112e-17
626 1 86.813 202.118 -5.55112e-17
627 1 48.7025 77.683 -5.55112e-17
628 1 37.519 30.0158 -5.55112e-17
629 1 16.5045 121.424 -5.55112e-17
630 2 155.549 19.0571 -5.55112e-17
631 1 39.6898 62.6041 -5.55112e-17
632 1 38.0559 98.4896 -5.55112e-17
633 1 40.5822 213.726 -5.55112e-17
634 1 218.913 123.892 -5.55112e-17
635 1 147.199 157.021 -5.55112e-17
636 1 210.717 64.2683 -5.55112e-17
637 1 209.181 54.2906 -5.55112e-17
638 1 174.342 74.0376 -5.55112e-17
639 2 204.728 76.4619 -5.55112e-17
640 1 134.43 135.831 -5.55112e-17
641 1 193.872 85.6934 -5.55112e-17
642 1 17.608 88.3123 -5.55112e-17
643 2 182.577 41.4667 -5.55112e-17
644 1 71.382 164.626 -5.55112e-17
645 1 103.028 201.807 -5.55112e-17
646 2 204.768 137.038 -5.55112e-17
647 1 16.0231 188.571 -5.55112e-17
648 1 137.319 85.2387 -5.55112e-17
649 2 215.293 152.561 -5.55112e-17
650 1 206.723 187.268 -5.55112e-17
651 1 212.743 129.336 -5.55112e-17
652 1 160.787 37.1725 -5.55112e-17
653 1 113.103 173.171 -5.55112e-17
654 1 24.5677 21.3337 -5.55112e-17
655 2 167.828 116.771 -5.55112e-17
656 1 49.897 91.9651 -5.55112e-17
657 2 86.2583 205.162 -5.55112e-17
658 1 40.1169 53.765 -5.55112e-17
659 2 169.162 191.834 -5.55112e-17
660 1 114.532 46.9367 -5.55112e-17
661 1 30.519 110.997 -5.55112e-17
662 1 85.6089 137.813 -5.55112e-17
663 1 37.997 19.8324 -5.55112e-17
664 1 148.558 24.299 -5.55112e-17
665 1 132.724 82.2272 -5.55112e-17
666 2 49.3434 197.592 -5.55112e-17
667 1 100.496 102.251 -5.55112e-17
668 2 106.941 95.4496 -5.55112e-17
669 1 48.2485 25.3468 -5.55112e-17
670 1 84.3159 189.775 -5.55112e-17
671 2 54.285 164.451 -5.55112e-17
672 1 188.688 25.5223 -5.55112e-17
673 1 64.8194 21.3101 -5.55112e-17
674 1 209.734 6.34074 -5.55112e-17
675 1 105.633 17.23 -5.55112e-17
676 1 147.103 141.06 -5.55112e-17
677 1 144.691 173.786 -5.55112e-17
678 1 142.625 34.2501 -5.55112e-17
679 2 163.65 19.9092 -5.55112e-17
680 1 1.33222 28.3739 -5.55112e-17
681 2 146.8 120.177 -5.55112e-17
682 1 3.64535 41.3319 -5.55112e-17
683 1 70.1246 5.95055 -5.55112e-17
684 1 116.829 155.656 -5.55112e-17
685 1 160.694 31.2427 -5.55112e-17
686 1 32.605 177.792 -5.55112e-17
687 1 112.904 184.259 -5.55112e-17
688 1 149.726 87.6667 -5.55112e-17
689 2 54.6286 47.0103 -5.55112e-17
690 1 71.841 21.7493 -5.55112e-17
691 1 93.3429 69.1838 -5.55112e-17
692 1 136.916 7.70423 -5.55112e-17
693 1 53.0574 183.242 -5.55112e-17
694 1 54.8617 133.922 -5.55112e-17
695 1 162.094 47.7881 -5.55112e-17
696 1 139.831 78.4729 -5.55112e-17
697 1 128.508 201.098 -5.55112e-17
698 1 135.451 73.3755 -5.55112e-17
699 1 180.36 192.36 -5.55112e-17
700 1 216.49 3.26499 -5.55112e-17
701 1 57.7596 23.7261 -5.55112e-17
702 1 110.273 127.099 -5.55112e-17
703 2 184.199 154.955 -5.55112e-17
704 1 31.6788 1.58376 -5.55112e-17
705 2 43.6265 109.706 -5.55112e-17
706 1 176.855 159.735 -5.55112e-17
707 1 127.817 18.7953 -5.55112e-17
708 1 74.6239 187.752 -5.55112e-17
709 1 149.459 192.764 -5.55112e-17
710 1 194.401 192.861 -5.55112e-17
711 1 128.379 85.294 -5.55112e-17
712 1 184.385 201.32 -5.55112e-17
713 1 48.6426 109.243 -5.55112e-17
714 1 141.177 4.74112 -5.55112e-17
715 1 56.4004 201.614 -5.55112e-17
716 1 34.022 125.613 -5.55112e-17
717 1 23.3997 114.166 -5.55112e-17
718 1 145.638 183.892 -5.55112e-17
719 2 115.818 82.7064 -5.55112e-17
720 1 98.6203 58.5604 -5.55112e-17
721 1 92.7516 105.128 -5.55112e-17
722 1 147.182 70.8712 -5.55112e-17
723 2 47.2706 51.832 -5.55112e-17
724 1 18.6415 50.9694 -5.55112e-17
725 1 21.702 96.9099 -5.55112e-17
726 1 190.374 44.5914 -5.55112e-17
727 1 150.084 202.129 -5.55112e-17
728 2 39.8776 96.0159 -5.55112e-17
729 1 128.009 169.871 -5.55112e-17
730 1 184.687 217.105 -5.55112e-17
731 1 72.3939 188.461 -5.55112e-17
732 1 213.29 3.67109 -5.55112e-17
733 1 201.642 39.3165 -5.55112e-17
734 1 7.78039 25.3601 -5.55112e-17
735 1 36.898 41.8362 -5.55112e-17
736 2 191.51 72.8858 -5.55112e-17
737 1 84.2461 87.9871 -5.55112e-17
738 1 32.0454 142.886 -5.55112e-17
739 1 102.739 156.752 -5.55112e-17
740 1 18.2666 119.421 -5.55112e-17
741 2 189.738 77.0488 -5.55112e-17
742 1 59.6778 47.9449 -5.55112e-17
743 1 205.537 61.5194 -5.55112e-17
744 2 214.35 171.956 -5.55112e-17
745 1 135.655 33.549 -5.55112e-17
746 1 9.63961 38.7365 -5.55112e-17
747 2 209.257 14.8736 -5.55112e-17
748 1 180.535 194.963 -5.55112e-17
749 1 181.941 204.736 -5.55112e-17
750 1 0.556659 145.994 -5.55112e-17
751 1 67.0718 51.5431 -5.55112e-17
752 1 170.824 141.52 -5.55112e-17
753 1 96.5598 150.883 -5.55112e-17
754 1 2.80825 211.434 -5.55112e-17
755 1 75.0439 198.612 -5.55112e-17
756 2 101.429 179.299 -5.55112e-17
757 1 28.7989 20.437 -5.55112e-17
758 1 139.193 157.961 -5.55112e-17
759 1 65.3899 107.453 -5.55112e-17
760 1 105.548 49.0476 -5.55112e-17
761 1 57.0555 186.244 -5.55112e-17
762 1 45.6522 24.4705 -5.55112e-17
763 1 133.547 120.995 -5.55112e-17
764 2 163.203 151.965 -5.55112e-17
765 1 93.4061 49.931 -5.55112e-17
766 1 111.158 35.3856 -5.55112e-17
767 1 99.3652 79.5569 -5.55112e-17
768 1 9.4427 215.412 -5.55112e-17
769 1 111.992 74.5052 -5.55112e-17
770 2 104.877 108.934 -5.55112e-17
771 1 145.801 188.508 -5.55112e-17
772 1 109.683 21.2693 -5.55112e-17
773 1 105.948 168.025 -5.55112e-17
774 1 116.126 113.937 -5.55112e-17
775 1 70.503 8.65183 -5.55112e-17
776 1 39.8235 13.2102 -5.55112e-17
777 1 129.412 211.987 -5.55112e-17
778 1 14.8211 17.5278 -5.55112e-17
779 1 192.679 43.1437 -5.55112e-17
780 1 2.29465 170.532 -5.55112e-17
781 1 129.193 117.047 -5.55112e-17
782 1 176.086 48.5759 -5.55112e-17
783 1 97.3338 23.9624 -5.55112e-17
784 2 198.71 153.384 -5.55112e-17
785 1 107.824 166.132 -5.55112e-17
786 1 125.498 190.521 -5.55112e-17
787 1 186.328 73.7848 -5.55112e-17
788 1 177.832 44.1662 -5.55112e-17
789 2 146.878 92.0851 -5.55112e-17
790 1 112.116 10.2679 -5.55112e-17
791 2 9.90788 136.326 -5.55112e-17
792 2 209.7 9.35784 -5.55112e-17
793 2 128.914 68.7275 -5.55112e-17
794 1 67.2678 193.205 -5.55112e-17
795 1 125.145 59.9193 -5.55112e-17
796 1 120.977 20.6433 -5.55112e-17
797 1 205.729 155.903 -5.55112e-17
798 2 184.603 204.122 -5.55112e-17
799 2 208.228 62.8968 -5.55112e-17
800 2 57.463 0.524719 -5.55112e-17
801 1 96.6733 117.776 -5.55112e-17
802 1 123.025 76.1829 -5.55112e-17
803 1 183.063 67.1352 -5.55112e-17
804 2 126.774 6.38144 -5.55112e-17
805 1 40.559 101.689 -5.55112e-17
806 1 10.5263 114.498 -5.55112e-17
807 2 110.495 99.8795 -5.55112e-17
808 1 24.9349 100.906 -5.55112e-17
809 2 36.4496 119.859 -5.55112e-17
810 1 126.119 208.688 -5.55112e-17
811 1 34.57 8.54632 -5.55112e-17
812 1 136.13 36.2204 -5.55112e-17
813 2 110.011 106.181 -5.55112e-17
814 1 132.953 61.7927 -5.55112e-17
815 1 85.8621 164.12 -5.55112e-17
816 1 190.259 10.8188 -5.55112e-17
817 1 106.785 192.495 -5.55112e-17
818 1 62.3659 102.582 -5.55112e-17
819 1 0.614753 126.573 -5.55112e-17
820 1 42.5207 91.8949 -5.55112e-17
821 1 91.8809 151.765 -5.55112e-17
822 2 21.0749 116.969 -5.55112e-17
823 2 140.438 81.2475 -5.55112e-17
824 1 47.4334 88.3167 -5.55112e-17
825 1 66.7266 16.9421 -5.55112e-17
826 1 213.834 207.474 -5.55112e-17
827 1 191.612 120.184 -5.55112e-17
828 1 129.954 137.317 -5.55112e-17
829 1 141.627 11.8762 -5.55112e-17
830 1 60.4165 120.283 -5.55112e-17
831 1 212.453 42.422 -5.55112e-17
832 1 96.0825 88.5892 -5.55112e-17
833 1 53.5398 75.9228 -5.55112e-17
834 1 118.29 216.658 -5.55112e-17
835 1 58.5047 3.37396 -5.55112e-17
836 1 10.7085 61.4894 -5.55112e-17
837 1 5.75317 69.6119 -5.55112e-17
838 1 92.2369 181.526 -5.55112e-17
839 2 210.607 32.1003 -5.55112e-17
840 1 185.673 13.6591 -5.55112e-17
841 2 58.8569 151.095 -5.55112e-17
842 1 95.3129 93.2861 -5.55112e-17
843 2 168.607 177.886 -5.55112e-17
844 1 40.5773 161.691 -5.55112e-17
845 1 78.774 204.459 -5.55112e-17
846 1 142.116 177.088 -5.55112e-17
847 1 65.7496 164.085 -5.55112e-17
848 1 173.266 98.439 -5.55112e-17
849 1 190.344 167.934 -5.55112e-17
850 1 26.6912 108.317 -5.55112e-17
851 1 88.8152 48.3187 -5.55112e-17
852 1 1.0154 198.031 -5.55112e-17
853 1 29.1579 108.961 -5.55112e-17
854 1 170.456 83.536 -5.55112e-17
855 1 140.095 30.0995 -5.55112e-17
856 1 24.0774 143.682 -5.55112e-17