ITEM: TIMESTEP
0
ITEM: NUMBER OF ATOMS
7200
ITEM: BOX BOUNDS xy xz yz pp pp pp
0.0000000000000000e+00 2.1900000000000000e+02 0.0000000000000000e+00
0.0000000000000000e+00 2.1900000000000000e+02 0.0000000000000000e+00
-3.6499999999999999e-01 3.6499999999999999e-01 0.0000000000000000e+00
ITEM: ATOMS id type x y z
1 1 65.3778 137.233 -5.55112e-17
2 1 194.611 115.818 -5.55112e-17
3 1 15.063 162.923 -5.55112e-17
4 1 27.0863 81.5969 -5.55112e-17
5 1 3.13252 158.957 -5.55112e-17
6 1 136.914 3.7042 -5.55112e-17
7 1 55.3079 45.93 -5.55112e-17
8 2 151.308 78.4405 -5.55112e-17
9 1 196.857 2.23567 -5.55112e-17
10 2 56.2479 187.519 -5.55112e-17
11 1 130.299 196.951 -5.55112e-17
12 1 153.782 115.524 -5.55112e-17
13 2 50.8473 62.9597 -5.55112e-17
14 1 66.4523 18.4625 -5.55112e-17
15 1 137.329 103.578 -5.55112e-17
16 2 49.8371 179.363 -5.55112e-17
17 1 119.944 28.5433 -5.55112e-17
18 2 29.5119 64.0433 -5.55112e-17
19 1 104.733 57.5062 -5.55112e-17
20 1 141.078 129.055 -5.55112e-17
21 1 42.2242 6.85193 -5.55112e-17
22 2 43.3364 129.186 -5.55112e-17
23 2 17.692 58.1287 -5.55112e-17
24 1 159.79 112.26 -5.55112e-17
25 1 69.5851 178.339 -5.55112e-17
26 2 88.2001 97.652 -5.55112e-17
27 1 170.606 194.718 -5.55112e-17
28 2 17.3136 157.813 -5.55112e-17
29 1 69.6905 49.7711 -5.55112e-17
30 1 154.971 100.905 -5.55112e-17
31 1 211.192 90.4016 -5.55112e-17
32 1 55.3473 107.76 -5.55112e-17
33 1 166.407 159.613 -5.55112e-17
34 1 38.8723 64.6655 -5.55112e-17
35 1 177.21 68.8742 -5.55112e-17
36 1 63.1811 86.4106 -5.55112e-17
37 2 127.619 145.277 -5.55112e-17
38 1 197.559 74.6993 -5.55112e-17
39 1 118.162 145.74 -5.55112e-17
40 1 160.77 168.876 -5.55112e-17
41 1 119.507 182.745 -5.55112e-17
42 1 96.4207 42.7367 -5.55112e-17
43 1 143.281 68.8684 -5.55112e-17
44 1 111.346 27.8555 -5.55112e-17
45 1 213.677 81.7542 -5.55112e-17
46 1 32.5945 206.056 -5.55112e-17
47 1 87.5594 172.645 -5.55112e-17
48 2 46.9778 69.4307 -5.55112e-17
49 1 61.7163 129.691 -5.55112e-17
50 1 48.018 187.639 -5.55112e-17
51 1 183.026 34.4259 -5.55112e-17
52 1 216.299 130.086 -5.55112e-17
53 1 155.38 30.8138 -5.55112e-17
54 1 27.6981 138.475 -5.55112e-17
55 1 23.5187 49.8305 -5.55112e-17
56 1 116.476 140.949 -5.55112e-17
57 2 71.6319 209.458 -5.55112e-17
58 1 28.9584 33.2069 -5.55112e-17
59 1 18.6727 123.681 -5.55112e-17
60 2 149.715 137.412 -5.55112e-17
61 2 54.6735 193.846 -5.55112e-17
62 1 21.5413 159.936 -5.55112e-17
63 1 105.314 203.249 -5.55112e-17
64 1 135.494 39.9968 -5.55112e-17
65 1 214.965 122.209 -5.55112e-17
66 1 126.058 131.874 -5.55112e-17
67 1 96.4434 138.174 -5.55112e-17
68 1 55.2063 115.569 -5.55112e-17
69 1 141.096 179.37 -5.55112e-17
70 1 54.3773 119.395 -5.55112e-17
71 1 212.588 121.171 -5.55112e-17
72 1 171.801 60.5659 -5.55112e-17
73 1 187.52 184.916 -5.55112e-17
74 1 209.374 25.8726 -5.55112e-17
75 2 91.521 0.154581 -5.55112e-17
76 1 17.5681 6.98919 -5.55112e-17
77 1 58.107 28.3965 -5.55112e-17
78 1 119.099 104.106 -5.55112e-17
79 2 113.378 1.40566 -5.55112e-17
80 1 81.2076 106.844 -5.55112e-17
81 1 109.482 141.634 -5.55112e-17
82 1 36.0915 129.254 -5.55112e-17
83 2 129.401 182.227 -5.55112e-17
84 1 175.948 82.3547 -5.55112e-17
85 1 33.787 83.3941 -5.55112e-17
86 1 132.572 143.799 -5.55112e-17
87 1 14.7988 2.84169 -5.55112e-17
88 1 31.9315 36.4783 -5.55112e-17
89 2 43.8128 4.54951 -5.55112e-17
90 2 190.051 186.403 -5.55112e-17
91 1 163.697 93.9091 -5.55112e-17
92 2 163.265 12.4832 -5.55112e-17
93 1 139.086 23.2559 -5.55112e-17
94 2 191.459 17.3578 -5.55112e-17
95 1 34.3803 204.085 -5.55112e-17
96 1 150.504 86.7507 -5.55112e-17
97 1 93.3357 216.777 -5.55112e-17
98 1 120.637 50.6285 -5.55112e-17
99 1 172.422 26.2603 -5.55112e-17
100 1 170.282 14.1522 -5.55112e-17
101 1 127.419 2.80632 -5.55112e-17
102 1 18.3423 45.0866 -5.55112e-17
103 1 59.9958 73.4041 -5.55112e-17
104 1 65.2302 116.604 -5.55112e-17
105 1 143.941 202.673 -5.55112e-17
106 1 78.1265 98.2367 -5.55112e-17
107 2 158.387 105.917 -5.55112e-17
108 1 31.3499 213.855 -5.55112e-17
109 1 38.384 79.6879 -5.55112e-17
110 1 97.4649 61.043 -5.55112e-17
111 1 61.7093 21.4652 -5.55112e-17
112 1 84.8246 133.392 -5.55112e-17
113 1 104.254 50.6837 -5.55112e-17
114 1 164.256 37.3947 -5.55112e-17
115 1 59.9429 169.34 -5.55112e-17
116 2 4.1439 137.199 -5.55112e-17
117 1 198.992 6.18144 -5.55112e-17
118 1 165.743 67.7601 -5.55112e-17
119 2 65.8095 110.958 -5.55112e-17
120 1 49.4948 207.965 -5.55112e-17
121 1 160.094 80.3473 -5.55112e-17
122 1 101.596 4.32567 -5.55112e-17
123 1 147.082 105.08 -5.55112e-17
124 1 156.76 196.448 -5.55112e-17
125 1 123.784 132.628 -5.55112e-17
126 1 102.653 55.9977 -5.55112e-17
127 1 153.65 82.982 -5.55112e-17
128 1 168.314 143.878 -5.55112e-17
129 1 7.27984 103.279 -5.55112e-17
130 1 77.4322 129.554 -5.55112e-17
131 1 170.204 150.65 -5.55112e-17
132 2 182.295 2.39467 -5.55112e-17
133 1 117.316 82.7226 -5.55112e-17
134 1 11.2527 97.1983 -5.55112e-17
135 1 78.8556 8.44452 -5.55112e-17
136 1 213.81 201.081 -5.55112e-17
137 1 101.045 137.023 -5.55112e-17
138 1 49.924 213.197 -5.55112e-17
139 1 203.902 111.277 -5.55112e-17
140 2 144.493 183.663 -5.55112e-17
141 1 198.791 89.6683 -5.55112e-17
142 2 212.053 49.308 -5.55112e-17
143 1 112.217 81.1109 -5.55112e-17
144 2 33.9191 196.359 -5.55112e-17
145 1 183.085 105.145 -5.55112e-17
146 1 103.584 114.556 -5.55112e-17
147 1 143.125 151.058 -5.55112e-17
148 1 3.90028 202.583 -5.55112e-17
149 1 69.3216 21.8663 -5.55112e-17
150 1 42.4727 35.1817 -5.55112e-17
151 1 34.5141 117.266 -5.55112e-17
152 1 46.8431 101.542 -5.55112e-17
153 2 52.4984 7.08132 -5.55112e-17
154 1 139.249 126.79 -5.55112e-17
155 1 115.146 3.4876 -5.55112e-17
156 2 70.4096 113.912 -5.55112e-17
157 1 207.308 104.645 -5.55112e-17
158 1 47.7474 28.5137 -5.55112e-17
159 1 11.1532 141.807 -5.55112e-17
160 1 12.3631 210.77 -5.55112e-17
161 1 8.91838 5.86664 -5.55112e-17
162 1 128.997 135.919 -5.55112e-17
163 1 24.9834 37.3044 -5.55112e-17
164 1 167.363 52.4848 -5.55112e-17
165 1 137.541 131.882 -5.55112e-17
166 2 159.72 60.8765 -5.55112e-17
167 1 175.552 46.5217 -5.55112e-17
168 1 148.218 168.101 -5.55112e-17
169 1 1.55764 101.66 -5.55112e-17
170 1 93.3346 168.68 -5.55112e-17
171 1 150.733 63.5665 -5.55112e-17
172 1 218.227 15.5961 -5.55112e-17
173 1 37.8465 150.211 -5.55112e-17
174 1 138.269 61.4834 -5.55112e-17
175 2 143.12 166.229 -5.55112e-17
176 1 106.139 67.4774 -5.55112e-17
177 2 74.947 55.3457 -5.55112e-17
178 1 69.7211 77.2842 -5.55112e-17
179 1 173.437 162.891 -5.55112e-17
180 1 202.719 196.126 -5.55112e-17
181 1 140.982 163.75 -5.55112e-17
182 2 78.4565 21.1865 -5.55112e-17
183 1 73.0516 156.162 -5.55112e-17
184 1 173.837 86.2991 -5.55112e-17
185 2 186.543 13.9651 -5.55112e-17
186 2 203.924 127.009 -5.55112e-17
187 1 93.9258 29.2266 -5.55112e-17
188 1 101.25 170.653 -5.55112e-17
189 1 121.792 175.317 -5.55112e-17
190 2 16.5355 165.593 -5.55112e-17
191 1 75.0392 154.657 -5.55112e-17
192 2 68.7129 132.377 -5.55112e-17
193 2 77.7006 172.37 -5.55112e-17
194 1 20.3752 145.955 -5.55112e-17
195 1 152.108 177.85 -5.55112e-17
196 1 168.672 187.483 -5.55112e-17
197 1 75.3027 70.8668 -5.55112e-17
198 2 24.1702 134.34 -5.55112e-17
199 1 210.701 58.4668 -5.55112e-17
200 1 80.7939 6.8771 -5.55112e-17
201 2 84.8818 111.027 -5.55112e-17
202 1 52.0681 211.999 -5.55112e-17
203 1 176.073 85.1412 -5.55112e-17
204 1 189.098 155.971 -5.55112e-17
205 2 191.549 82.8145 -5.55112e-17
206 1 92.1144 133.173 -5.55112e-17
207 1 102.199 35.4907 -5.55112e-17
208 1 48.418 78.05 -5.55112e-17
209 1 82.6959 2.60238 -5.55112e-17
210 1 8.89 60.1995 -5.55112e-17
211 2 136.902 157.461 -5.55112e-17
212 1 122.226 116.7 -5.55112e-17
213 1 152.429 88.0961 -5.55112e-17
214 1 75.2884 14.7 -5.55112e-17
215 1 70.235 199.181 -5.55112e-17
216 1 193.388 137.764 -5.55112e-17
217 1 124.873 184.83 -5.55112e-17
218 2 36.6564 173.634 -5.55112e-17
219 1 154.276 208.911 -5.55112e-17
220 2 107.226 58.3228 -5.55112e-17
221 1 211.22 61.0219 -5.55112e-17
222 1 152.584 137.053 -5.55112e-17
223 1 56.7407 211.756 -5.55112e-17
224 2 9.36494 188.134 -5.55112e-17
225 1 191.42 133.738 -5.55112e-17
226 1 138.946 184.4 -5.55112e-17
227 2 51.6774 17.51 -5.55112e-17
228 1 130.061 112.692 -5.55112e-17
229 1 74.5294 122.07 -5.55112e-17
230 1 166.069 142.416 -5.55112e-17
231 1 137.033 136.7 -5.55112e-17
232 1 214.828 76.8803 -5.55112e-17
233 1 105.421 91.904 -5.55112e-17
234 1 117.642 3.65156 -5.55112e-17
235 1 29.491 150.683 -5.55112e-17
236 1 43.477 90.2874 -5.55112e-17
237 1 200.468 15.1792 -5.55112e-17
238 1 139.626 136.804 -5.55112e-17
239 2 34.1652 114.244 -5.55112e-17
240 1 102.381 6.86848 -5.55112e-17
241 2 168.919 19.394 -5.55112e-17
242 2 197.459 33.4981 -5.55112e-17
243 2 118.686 15.0422 -5.55112e-17
244 1 105.436 2.10589 -5.55112e-17
245 1 87.3014 56.8668 -5.55112e-17
246 1 133.245 129.493 -5.55112e-17
247 1 210.706 98.1604 -5.55112e-17
248 1 90.5399 7.88367 -5.55112e-17
249 1 17.8672 70.0144 -5.55112e-17
250 2 153.907 33.5638 -5.55112e-17
251 1 153.247 211.502 -5.55112e-17
252 1 195.259 64.4324 -5.55112e-17
253 1 100.053 59.7732 -5.55112e-17
254 2 75.0281 202.392 -5.55112e-17
255 1 210.69 151.174 -5.55112e-17
256 1 83.4636 166.016 -5.55112e-17
257 1 215.967 153.434 -5.55112e-17
258 2 164.076 34.4973 -5.55112e-17
259 1 61.6133 156.006 -5.55112e-17
260 1 129.134 6.99159 -5.55112e-17
261 1 185.571 213.35 -5.55112e-17
262 1 30.6491 76.8098 -5.55112e-17
263 1 15.3111 216.154 -5.55112e-17
264 1 173.621 42.8722 -5.55112e-17
265 1 168.137 30.0876 -5.55112e-17
266 1 144.189 7.33547 -5.55112e-17
267 1 6.7029 68.4382 -5.55112e-17
268 1 25.6524 44.9581 -5.55112e-17
269 1 125.463 101.137 -5.55112e-17
270 1 140.361 109.925 -5.55112e-17
271 1 14.3293 89.3379 -5.55112e-17
272 1 158.651 199.06 -5.55112e-17
273 1 54.6152 174.262 -5.55112e-17
274 2 117.587 87.9114 -5.55112e-17
275 1 64.0632 5.33572 -5.55112e-17
276 2 46.5864 39.8339 -5.55112e-17
277 2 175.329 110.594 -5.55112e-17
278 1 52.0474 93.2116 -5.55112e-17
279 2 109.554 218.449 -5.55112e-17
280 1 50.4214 29.2583 -5.55112e-17
281 1 156.328 24.5851 -5.55112e-17
282 1 164.804 7.29575 -5.55112e-17
283 1 112.064 142.473 -5.55112e-17
284 1 133.949 164.631 -5.55112e-17
285 1 36.0187 14.4122 -5.55112e-17
286 2 33.8786 217.118 -5.55112e-17
287 1 62.8331 136.933 -5.55112e-17
288 1 14.8536 56.5717 -5.55112e-17
289 1 77.2681 50.3837 -5.55112e-17
290 1 157.436 193.995 -5.55112e-17
291 1 164.186 133.801 -5.55112e-17
292 2 22.4788 182.006 -5.55112e-17
293 2 69.9255 196.232 -5.55112e-17
294 1 125.556 48.4001 -5.55112e-17
295 1 121.232 44.4168 -5.55112e-17
296 1 133.448 41.5836 -5.55112e-17
297 1 117.391 143.248 -5.55112e-17
298 1 116.803 191.799 -5.55112e-17
299 1 159.125 121.191 -5.55112e-17
300 2 67.0148 89.5997 -5.55112e-17
301 1 78.1697 55.1103 -5.55112e-17
302 1 128.796 194.575 -5.55112e-17
303 2 199.9 57.5302 -5.55112e-17
304 2 161.92 136.023 -5.55112e-17
305 1 88.1217 100.454 -5.55112e-17
306 1 49.8483 53.933 -5.55112e-17
307 1 19.5597 101.059 -5.55112e-17
308 1 162.062 59.0264 -5.55112e-17
309 2 72.4879 178.819 -5.55112e-17
310 1 199.903 217.141 -5.55112e-17
311 1 80.8002 34.0794 -5.55112e-17
312 1 191.919 147.225 -5.55112e-17
313 2 143.772 71.6315 -5.55112e-17
314 1 44.6767 139.693 -5.55112e-17
315 1 109.865 150.677 -5.55112e-17
316 1 73.0594 1.5084 -5.55112e-17
317 1 37.7963 105.744 -5.55112e-17
318 1 112.295 4.076 -5.55112e-17
319 1 51.6552 31.3463 -5.55112e-17
320 1 139.41 77.5897 -5.55112e-17
321 1 88.6455 205.68 -5.55112e-17
322 1 141.009 142.903 -5.55112e-17
323 1 198.326 96.9362 -5.55112e-17
324 1 82.2258 27.2864 -5.55112e-17
325 1 174.434 135.252 -5.55112e-17
326 1 83.8203 152.131 -5.55112e-17
327 2 148.328 185.075 -5.55112e-17
328 1 171.55 38.9032 -5.55112e-17
329 2 24.5456 110.229 -5.55112e-17
330 1 14.2281 110.059 -5.55112e-17
331 1 174.925 174.9 -5.55112e-17
332 2 111.29 96.5682 -5.55112e-17
333 1 48.6563 16.6084 -5.55112e-17
334 1 147.641 165.688 -5.55112e-17
335 1 7.08401 210.168 -5.55112e-17
336 1 212.366 106.249 -5.55112e-17
337 1 98.9413 183.112 -5.55112e-17
338 1 159.708 57.9804 -5.55112e-17
339 1 111.892 23.7161 -5.55112e-17
340 1 151.572 134.669 -5.55112e-17
341 1 170.567 172.251 -5.55112e-17
342 1 129.855 150.137 -5.55112e-17
343 1 121.35 19.7128 -5.55112e-17
344 1 38.7091 175.741 -5.55112e-17
345 1 57.7862 114.802 -5.55112e-17
346 1 16.5578 143.558 -5.55112e-17
347 1 93.661 92.7232 -5.55112e-17
348 1 160.213 189.336 -5.55112e-17
349 1 193.307 75.3438 -5.55112e-17
350 2 89.2243 44.4805 -5.55112e-17
351 1 155.125 66.0328 -5.55112e-17
352 1 63.0123 162.975 -5.55112e-17
353 1 43.9731 161.043 -5.55112e-17
354 1 158.67 166.227 -5.55112e-17
355 1 58.5655 151.086 -5.55112e-17
356 1 38.663 38.127 -5.55112e-17
357 1 55.9577 161.033 -5.55112e-17
358 1 176.37 185.782 -5.55112e-17
359 1 161.049 166.176 -5.55112e-17
360 1 79.7412 59.5058 -5.55112e-17
361 1 51.2753 172.667 -5.55112e-17
362 1 170.738 199.588 -5.55112e-17
363 1 159.117 196.642 -5.55112e-17
364 2 105.645 94.7567 -5.55112e-17
365 1 176.085 90.5751 -5.55112e-17
366 1 117.816 159.509 -5.55112e-17
367 1 186.357 11.2545 -5.55112e-17
368 1 196.453 191.656 -5.55112e-17
369 2 115.949 197.085 -5.55112e-17
370 1 218.347 211.712 -5.55112e-17
371 1 63.3241 142.011 -5.55112e-17
372 2 0.348373 93.5998 -5.55112e-17
373 2 207.161 5.94652 -5.55112e-17
374 1 148.492 91.2776 -5.55112e-17
375 1 21.0516 123.778 -5.55112e-17
376 1 10.3003 148.876 -5.55112e-17
377 1 26.761 216.681 -5.55112e-17
378 1 72.0371 121.774 -5.55112e-17
379 1 35.3218 50.02 -5.55112e-17
380 1 178.059 147.666 -5.55112e-17
381 1 16.7728 4.55298 -5.55112e-17
382 1 49.8345 50.1899 -5.55112e-17
383 1 170.324 67.4936 -5.55112e-17
384 1 21.8619 16.0162 -5.55112e-17
385 1 191.087 77.0698 -5.55112e-17
386 2 86.7811 41.2676 -5.55112e-17
387 1 144.038 2.15427 -5.55112e-17
388 1 71.3456 51.8376 -5.55112e-17
389 1 209.564 160.014 -5.55112e-17
390 2 207.239 179.301 -5.55112e-17
391 2 41.0773 32.5764 -5.55112e-17
392 1 41.2216 0.481614 -5.55112e-17
393 1 0.719671 33.322 -5.55112e-17
394 1 100.975 107.014 -5.55112e-17
395 1 15.2537 31.3873 -5.55112e-17
396 1 203.896 149.423 -5.55112e-17
397 1 101.821 17.3564 -5.55112e-17
398 1 10.5742 190.746 -5.55112e-17
399 1 19.8062 67.345 -5.55112e-17
400 1 115.546 194.259 -5.55112e-17
401 1 86.2268 176.527 -5.55112e-17
402 2 191.046 178.177 -5.55112e-17
403 1 214.613 54.1152 -5.55112e-17
404 1 61.4742 88.1292 -5.55112e-17
405 1 202.416 27.1583 -5.55112e-17
406 1 198.347 67.3907 -5.55112e-17
407 2 17.0534 67.1339 -5.55112e-17
408 1 40.0567 29.696 -5.55112e-17
409 1 157.659 125.817 -5.55112e-17
410 1 19.2622 164.557 -5.55112e-17
411 1 148.181 142.371 -5.55112e-17
412 1 111.89 212.96 -5.55112e-17
413 1 69.8504 162.847 -5.55112e-17
414 1 38.2493 15.1855 -5.55112e-17
415 1 204.207 146.871 -5.55112e-17
416 1 63.2292 203.396 -5.55112e-17
417 1 161.724 82.4942 -5.55112e-17
418 2 190.158 9.04922 -5.55112e-17
419 1 107.322 150.328 -5.55112e-17
420 2 147.958 108.205 -5.55112e-17
421 1 89.5404 104.628 -5.55112e-17
422 1 176.867 23.5657 -5.55112e-17
423 2 161.751 38.543 -5.55112e-17
424 1 135.435 143.827 -5.55112e-17
425 1 131.443 168.418 -5.55112e-17
426 1 144.713 97.8457 -5.55112e-17
427 1 54.9093 84.3233 -5.55112e-17
428 1 57.5613 207.16 -5.55112e-17
429 1 194.432 83.7088 -5.55112e-17
430 1 218.359 61.8373 -5.55112e-17
431 1 132.889 212.75 -5.55112e-17
432 1 162.053 53.7033 -5.55112e-17
433 1 104.001 154.187 -5.55112e-17
434 1 72.429 30.6152 -5.55112e-17
435 1 178.498 161.257 -5.55112e-17
436 1 38.2916 33.6864 -5.55112e-17
437 1 185.777 98.7181 -5.55112e-17
438 2 117.129 29.088 -5.55112e-17
439 1 56.4838 209.352 -5.55112e-17
440 1 4.80848 160.73 -5.55112e-17
441 1 189.234 129.459 -5.55112e-17
442 1 46.872 18.4876 -5.55112e-17
443 1 163.592 121.174 -5.55112e-17
444 1 218.189 100.874 -5.55112e-17
445 1 138.339 211.621 -5.55112e-17
446 1 156.006 98.2572 -5.55112e-17
447 1 52.221 138.688 -5.55112e-17
448 1 76.4439 7.5647 -5.55112e-17
449 1 127.006 137.463 -5.55112e-17
450 1 142.859 193.468 -5.55112e-17
451 1 171.267 46.8382 -5.55112e-17
452 1 121.488 141.855 -5.55112e-17
453 1 178.932 182.124 -5.55112e-17
454 1 158.657 210.503 -5.55112e-17
455 1 101.417 72.0835 -5.55112e-17
456 1 166.951 36.4755 -5.55112e-17
457 1 98.1598 121.833 -5.55112e-17
458 1 195.164 10.4384 -5.55112e-17
459 1 81.9768 69.6949 -5.55112e-17
460 1 34.4066 88.7206 -5.55112e-17
461 1 188.461 177.441 -5.55112e-17
462 1 194.481 110.264 -5.55112e-17
463 1 124.478 30.9256 -5.55112e-17
464 1 151.283 184.935 -5.55112e-17
465 1 120.2 160.502 -5.55112e-17
466 1 24.2844 215.814 -5.55112e-17
467 1 43.0893 78.6096 -5.55112e-17
468 1 158.693 217.593 -5.55112e-17
469 1 64.0516 88.8077 -5.55112e-17
470 1 79.1114 38.2606 -5.55112e-17
471 1 127.345 174.962 -5.55112e-17
472 1 47.6299 88.9972 -5.55112e-17
473 1 49.5348 119.449 -5.55112e-17
474 1 89.9109 102.162 -5.55112e-17
475 1 185.769 163.181 -5.55112e-17
476 2 189.081 217.575 -5.55112e-17
477 1 50.2669 73.0771 -5.55112e-17
478 1 37.7867 121.686 -5.55112e-17
479 1 201.284 80.7278 -5.55112e-17
480 1 85.9819 23.8394 -5.55112e-17
481 1 6.70003 100.748 -5.55112e-17
482 1 97.8484 160.01 -5.55112e-17
483 1 143.431 163.086 -5.55112e-17
484 2 84.922 51.2648 -5.55112e-17
485 1 26.1507 93.8504 -5.55112e-17
486 1 82.3416 17.5331 -5.55112e-17
487 1 93.8697 195.263 -5.55112e-17
488 1 25.0792 117.275 -5.55112e-17
489 1 15.6018 130.268 -5.55112e-17
490 1 207.407 84.8287 -5.55112e-17
491 1 196.592 113.898 -5.55112e-17
492 1 11.1494 129.494 -5.55112e-17
493 1 194.709 3.18927 -5.55112e-17
494 1 211.694 38.6959 -5.55112e-17
495 1 193.604 91.0302 -5.55112e-17
496 2 35.2622 193.113 -5.55112e-17
497 1 38.9524 218.568 -5.55112e-17
498 1 106.155 115.679 -5.55112e-17
499 2 134.406 2.00741 -5.55112e-17
500 1 51.831 25.8928 -5.55112e-17
501 2 127.066 216.658 -5.55112e-17
502 2 121.417 145.931 -5.55112e-17
503 1 159.834 184.532 -5.55112e-17
504 1 111.816 149.099 -5.55112e-17
505 1 125.707 23.3253 -5.55112e-17
506 1 27.1853 133.679 -5.55112e-17
507 1 24.448 129.519 -5.55112e-17
508 1 210.912 2.14515 -5.55112e-17
509 2 31.3346 87.7619 -5.55112e-17
510 2 141.367 139.529 -5.55112e-17
511 1 197.841 36.3882 -5.55112e-17
512 2 208.023 59.7441 -5.55112e-17
513 1 57.1505 147.011 -5.55112e-17
514 1 51.7492 23.0691 -5.55112e-17
515 1 198.789 30.9781 -5.55112e-17
516 1 192.434 203.72 -5.55112e-17
517 1 115.561 118.581 -5.55112e-17
518 2 103.417 12.4444 -5.55112e-17
519 1 17.1621 61.0135 -5.55112e-17
520 2 212.151 24.6459 -5.55112e-17
521 1 87.7566 111.486 -5.55112e-17
522 1 16.423 33.6518 -5.55112e-17
523 1 16.6539 63.7818 -5.55112e-17
524 1 101.077 74.7038 -5.55112e-17
525 1 195.265 122.943 -5.55112e-17
526 1 190.978 64.618 -5.55112e-17
527 1 76.044 5.11034 -5.55112e-17
528 1 158.186 17.463 -5.55112e-17
529 1 67.8662 143.135 -5.55112e-17
530 1 98.4376 41.3635 -5.55112e-17
531 1 50.9922 200.615 -5.55112e-17
532 1 206.091 187.28 -5.55112e-17
533 1 142.95 144.426 -5.55112e-17
534 1 96.203 145.005 -5.55112e-17
535 1 10.462 106.831 -5.55112e-17
536 1 198.985 141.09 -5.55112e-17
537 1 201.849 166.038 -5.55112e-17
538 1 169.028 81.3573 -5.55112e-17
539 1 93.8023 208.851 -5.55112e-17
540 1 105.089 83.3877 -5.55112e-17
541 1 54.1096 37.1353 -5.55112e-17
542 1 66.0555 0.379384 -5.55112e-17
543 1 146.864 156.857 -5.55112e-17
544 1 143.33 198.033 -5.55112e-17
545 1 23.2354 145.567 -5.55112e-17
546 1 180.598 40.9508 -5.55112e-17
547 1 80.528 172.707 -5.55112e-17
548 1 101.122 0.692946 -5.55112e-17
549 1 51.056 82.1827 -5.55112e-17
550 2 153.077 132.163 -5.55112e-17
551 2 130.046 158.377 -5.55112e-17
552 2 93.071 178.083 -5.55112e-17
553 1 125.589 36.5087 -5.55112e-17
554 1 78.2458 114.709 -5.55112e-17
555 2 66.342 140.609 -5.55112e-17
556 1 148.68 16.6673 -5.55112e-17
557 1 77.3094 12.9013 -5.55112e-17
558 1 135.532 124.182 -5.55112e-17
559 1 188.021 47.8034 -5.55112e-17
560 1 140.803 60.9622 -5.55112e-17
561 1 141.902 171.176 -5.55112e-17
562 1 196.832 133.778 -5.55112e-17
563 2 160.864 125.492 -5.55112e-17
564 1 21.9591 72.6086 -5.55112e-17
565 1 60.6436 11.0132 -5.55112e-17
566 1 76.3434 34.7767 -5.55112e-17
567 1 131.964 127.15 -5.55112e-17
568 1 38.1965 128.493 -5.55112e-17
569 1 114.908 184.12 -5.55112e-17
570 1 117.471 136.563 -5.55112e-17
571 1 175.711 205.7 -5.55112e-17
572 1 45.1192 88.2726 -5.55112e-17
573 1 178.673 78.3426 -5.55112e-17
574 1 48.4095 126.535 -5.55112e-17
575 1 13.5688 100.725 -5.55112e-17
576 1 197.44 94.2926 -5.55112e-17
577 1 200.681 41.0008 -5.55112e-17
578 1 123.4 189.141 -5.55112e-17
579 1 12.0431 163.336 -5.55112e-17
580 1 101.708 139.283 -5.55112e-17
581 1 144.735 149.017 -5.55112e-17
582 1 76.9964 79.8863 -5.55112e-17
583 1 161.046 174.584 -5.55112e-17
584 2 24.3734 138.202 -5.55112e-17
585 1 55.0164 196.718 -5.55112e-17
586 1 140.338 166.169 -5.55112e-17
587 1 99.0211 105.553 -5.55112e-17
588 1 17.4627 203.847 -5.55112e-17
589 1 109.789 22.5911 -5.55112e-17
590 1 70.7752 0.322233 -5.55112e-17
591 1 5.42461 158.345 -5.55112e-17
592 1 61.2692 160.895 -5.55112e-17
593 1 209.293 181.144 -5.55112e-17
594 1 181.186 180.563 -5.55112e-17
595 1 84.0679 40.2495 -5.55112e-17
596 1 69.2043 36.9802 -5.55112e-17
597 2 178.712 205.478 -5.55112e-17
598 1 166.735 209.645 -5.55112e-17
599 1 208.387 170.987 -5.55112e-17
600 1 123.722 15.395 -5.55112e-17
601 1 13.9148 137.986 -5.55112e-17
602 1 99.2487 31.3875 -5.55112e-17
603 1 212.569 214.499 -5.55112e-17
604 1 120.252 12.2488 -5.55112e-17
605 2 86.4408 77.9431 -5.55112e-17
606 1 101.669 199.537 -5.55112e-17
607 2 163.501 154.476 -5.55112e-17
608 1 95.8477 77.0372 -5.55112e-17
609 1 15.7388 8.79577 -5.55112e-17
610 1 208.616 148.646 -5.55112e-17
611 1 201.302 189.579 -5.55112e-17
612 1 218.234 37.7308 -5.55112e-17
613 1 57.6908 153.522 -5.55112e-17
614 2 126.705 179.888 -5.55112e-17
615 1 130.956 14.9522 -5.55112e-17
616 1 197.064 131.412 -5.55112e-17
617 1 129.117 199.242 -5.55112e-17
618 1 188.641 203.242 -5.55112e-17
619 1 184.465 82.0876 -5.55112e-17
620 1 144.098 118.102 -5.55112e-17
621 1 204.936 93.6194 -5.55112e-17
622 1 101.362 217.129 -5.55112e-17
623 1 5.11194 3.0484 -5.55112e-17
624 1 23.3035 213.395 -5.55112e-17
625 1 203.171 152.696 -5.55112e-17
626 1 105.304 196.476 -5.55112e-17
627 1 37.3359 68.8535 -5.55112e-17
628 1 32.9802 29.6863 -5.55112e-17
629 1 32.9185 111.535 -5.55112e-17
630 2 151.459 21.8109 -5.55112e-17
631 1 41.7446 67.7872 -5.55112e-17
632 1 47.6243 95.8486 -5.55112e-17
633 1 38.1972 213.436 -5.55112e-17
634 1 215.929 138.849 -5.55112e-17
635 1 175.66 146.742 -5.55112e-17
636 1 209.944 66.3029 -5.55112e-17
637 1 207.162 57.0063 -5.55112e-17
638 1 173.075 77.0029 -5.55112e-17
639 2 203.391 78.7454 -5.55112e-17
640 1 128.907 147.877 -5.55112e-17
641 1 195.349 86.2668 -5.55112e-17
642 1 21.4172 88.8816 -5.55112e-17
643 2 183.045 42.4621 -5.55112e-17
644 1 71.4863 158.042 -5.55112e-17
645 1 108.603 200.603 -5.55112e-17
646 2 201.897 142.444 -5.55112e-17
647 1 10.2941 185.384 -5.55112e-17
648 1 137.564 93.9945 -5.55112e-17
649 2 22.7126 152.57 -5.55112e-17
650 1 203.999 185.837 -5.55112e-17
651 1 0.353899 115.745 -5.55112e-17
652 1 159.199 47.1174 -5.55112e-17
653 1 113.039 176.201 -5.55112e-17
654 1 22.8371 23.658 -5.55112e-17
655 2 169.588 111.245 -5.55112e-17
656 1 42.1594 109.816 -5.55112e-17
657 2 79.0927 207.458 -5.55112e-17
658 1 60.6465 40.4928 -5.55112e-17
659 2 154.583 189.424 -5.55112e-17
660 1 113.618 45.9076 -5.55112e-17
661 1 47.7923 117.432 -5.55112e-17
662 1 88.11 136.525 -5.55112e-17
663 1 36.598 19.8596 -5.55112e-17
664 1 139.506 18.184 -5.55112e-17
665 1 142.336 81.0867 -5.55112e-17
666 2 49.8244 189.947 -5.55112e-17
667 1 94.7916 99.7114 -5.55112e-17
668 2 104.472 88.6036 -5.55112e-17
669 1 41.7419 19.6794 -5.55112e-17
670 1 95.2255 173.474 -5.55112e-17
671 2 53.8239 159.016 -5.55112e-17
672 1 196.733 17.9373 -5.55112e-17
673 1 64.1704 20.1765 -5.55112e-17
674 1 2.75802 31.5396 -5.55112e-17
675 1 121.473 14.3645 -5.55112e-17
676 1 167.046 108.246 -5.55112e-17
677 1 130.038 175.271 -5.55112e-17
678 1 141.268 32.0041 -5.55112e-17
679 2 162.996 28.0121 -5.55112e-17
680 1 206.285 37.0802 -5.55112e-17
681 2 129.841 125.218 -5.55112e-17
682 1 0.505985 47.7102 -5.55112e-17
683 1 69.1592 4.7902 -5.55112e-17
684 1 118.581 155.422 -5.55112e-17
685 1 161.502 35.7993 -5.55112e-17
686 1 36.4238 176.781 -5.55112e-17
687 1 127.224 192.552 -5.55112e-17
688 1 166.428 104.207 -5.55112e-17
689 2 51.8742 39.5053 -5.55112e-17
690 1 71.365 20.0888 -5.55112e-17
691 1 92.1694 68.2546 -5.55112e-17
692 1 137.011 17.2752 -5.55112e-17
693 1 49.8068 168.38 -5.55112e-17
694 1 65.9564 132.499 -5.55112e-17
695 1 153.466 36.3434 -5.55112e-17
696 1 141.026 70.6596 -5.55112e-17
697 1 142.359 200.337 -5.55112e-17
698 1 120.726 71.6682 -5.55112e-17
699 1 178.869 192.735 -5.55112e-17
700 1 201.249 209.211 -5.55112e-17
701 1 56.8931 22.2293 -5.55112e-17
702 1 113.305 129.75 -5.55112e-17
703 2 188.307 143.255 -5.55112e-17
704 1 29.0266 1.52032 -5.55112e-17
705 2 55.6499 112.772 -5.55112e-17
706 1 167.644 178.948 -5.55112e-17
707 1 124.887 25.9312 -5.55112e-17
708 1 84.3213 208.903 -5.55112e-17
709 1 144.391 195.489 -5.55112e-17
710 1 191.913 190.966 -5.55112e-17
711 1 128.547 86.1845 -5.55112e-17
712 1 186.979 207.403 -5.55112e-17
713 1 55.7582 130.585 -5.55112e-17
714 1 141.348 16.5969 -5.55112e-17
715 1 70.9659 183.41 -5.55112e-17
716 1 47.0757 139.089 -5.55112e-17
717 1 53.1323 121.43 -5.55112e-17
718 1 130.713 189.455 -5.55112e-17
719 2 120.098 74.7507 -5.55112e-17
720 1 95.0761 62.4199 -5.55112e-17
721 1 97.296 98.8669 -5.55112e-17
722 1 126.112 62.2703 -5.55112e-17
723 2 62.1498 49.353 -5.55112e-17
724 1 11.7916 53.1374 -5.55112e-17
725 1 46.3381 93.4653 -5.55112e-17
726 1 190.14 46.3597 -5.55112e-17
727 1 148.13 204.3 -5.55112e-17
728 2 40.5098 90.5301 -5.55112e-17
729 1 133.099 162.356 -5.55112e-17
730 1 177.405 200.505 -5.55112e-17
731 1 59.7706 191.179 -5.55112e-17
732 1 9.22384 1.36243 -5.55112e-17
733 1 201.127 31.9683 -5.55112e-17
734 1 3.71107 26.8807 -5.55112e-17
735 1 38.6077 52.9566 -5.55112e-17
736 2 190.156 74.2526 -5.55112e-17
737 1 83.2553 86.9774 -5.55112e-17
738 1 13.871 165.186 -5.55112e-17
739 1 104.372 156.771 -5.55112e-17
740 1 32.1848 116.334 -5.55112e-17
741 2 188.765 78.5871 -5.55112e-17
742 1 65.4682 40.5105 -5.55112e-17
743 1 204.454 63.6369 -5.55112e-17
744 2 213.276 173.992 -5.55112e-17
745 1 134.072 32.0007 -5.55112e-17
746 1 19.3977 33.9925 -5.55112e-17
747 2 206.419 24.948 -5.55112e-17
748 1 180.604 191.116 -5.55112e-17
749 1 191.126 208.564 -5.55112e-17
750 1 211.603 161.508 -5.55112e-17
751 1 57.1691 58.3697 -5.55112e-17
752 1 183.959 115.832 -5.55112e-17
753 1 97.5388 151.254 -5.55112e-17
754 1 6.06049 213.92 -5.55112e-17
755 1 82.0262 196.183 -5.55112e-17
756 2 105.829 191.149 -5.55112e-17
757 1 27.3867 20.7141 -5.55112e-17
758 1 122.954 143.786 -5.55112e-17
759 1 63.5138 112.593 -5.55112e-17
760 1 91.8646 46.0978 -5.55112e-17
761 1 67.1062 178.808 -5.55112e-17
762 1 44.6976 24.6758 -5.55112e-17
763 1 120.961 106.236 -5.55112e-17
764 2 178 144.981 -5.55112e-17
765 1 95.2772 52.2719 -5.55112e-17
766 1 108.062 37.3479 -5.55112e-17
767 1 98.0479 78.3577 -5.55112e-17
768 1 17.4311 214.868 -5.55112e-17
769 1 109.669 75.9148 -5.55112e-17
770 2 116.517 108.457 -5.55112e-17
771 1 136.284 189.444 -5.55112e-17
772 1 103.15 28.029 -5.55112e-17
773 1 108.028 167.882 -5.55112e-17
774 1 106.302 118.261 -5.55112e-17
775 1 69.6152 7.65916 -5.55112e-17
776 1 38.4411 12.5574 -5.55112e-17
777 1 108.044 187.244 -5.55112e-17
778 1 23.1047 21.2589 -5.55112e-17
779 1 192.416 44.6595 -5.55112e-17
780 1 9.16359 167.01 -5.55112e-17
781 1 120.312 101.678 -5.55112e-17
782 1 176.01 49.117 -5.55112e-17
783 1 99.5104 16.1801 -5.55112e-17
784 2 195.212 158.697 -5.55112e-17
785 1 109.587 165.977 -5.55112e-17
786 1 117.734 177.685 -5.55112e-17
787 1 185.532 75.1787 -5.55112e-17
788 1 178.07 45.0131 -5.55112e-17
789 2 140.358 103.97 -5.55112e-17
790 1 109.815 35.4841 -5.55112e-17
791 2 26.7609 125.269 -5.55112e-17
792 2 1.38614 13.3695 -5.55112e-17
793 2 115.751 70.9531 -5.55112e-17
794 1 48.7722 182.304 -5.55112e-17
795 1 123.94 58.5363 -5.55112e-17
796 1 119.819 24.1788 -5.55112e-17
797 1 198.389 154.891 -5.55112e-17
798 2 199.65 206.716 -5.55112e-17
799 2 207.176 64.8978 -5.55112e-17
800 2 55.1618 218.729 -5.55112e-17
801 1 97.9327 128.085 -5.55112e-17
802 1 123.247 79.792 -5.55112e-17
803 1 182.172 68.3101 -5.55112e-17
804 2 125.169 0.874091 -5.55112e-17
805 1 53.6794 105.76 -5.55112e-17
806 1 5.40445 114.626 -5.55112e-17
807 2 106.94 100.667 -5.55112e-17
808 1 6.84695 112.672 -5.55112e-17
809 2 38.1461 131.493 -5.55112e-17
810 1 124.289 217.043 -5.55112e-17
811 1 33.0735 8.07046 -5.55112e-17
812 1 134.637 34.7119 -5.55112e-17
813 2 111.495 104.796 -5.55112e-17
814 1 129.356 66.3093 -5.55112e-17
815 1 87.7797 164.78 -5.55112e-17
816 1 206.671 15.2213 -5.55112e-17
817 1 108.834 195.035 -5.55112e-17
818 1 54.4037 110.027 -5.55112e-17
819 1 8.62992 133.608 -5.55112e-17
820 1 48.0739 106.161 -5.55112e-17
821 1 93.2772 152.237 -5.55112e-17
822 2 38.2689 118.442 -5.55112e-17
823 2 144.426 82.6644 -5.55112e-17
824 1 33.9025 61.3582 -5.55112e-17
825 1 65.885 15.9392 -5.55112e-17
826 1 202.997 213.93 -5.55112e-17
827 1 193.498 107.911 -5.55112e-17
828 1 131.831 131.624 -5.55112e-17
829 1 135.454 11.6745 -5.55112e-17
830 1 63.5315 127.647 -5.55112e-17
831 1 217.874 42.6601 -5.55112e-17
832 1 94.2537 87.728 -5.55112e-17
833 1 63.3074 98.8681 -5.55112e-17
834 1 120.15 217.512 -5.55112e-17
835 1 56.6694 2.46976 -5.55112e-17
836 1 10.8156 47.7403 -5.55112e-17
837 1 4.27372 72.5908 -5.55112e-17
838 1 93.9266 181.11 -5.55112e-17
839 2 195.048 15.431 -5.55112e-17
840 1 215.064 0.25946 -5.55112e-17
841 2 67.7645 175.776 -5.55112e-17
842 1 96.1767 91.7891 -5.55112e-17
843 2 163.162 176.544 -5.55112e-17
844 1 46.3776 156.362 -5.55112e-17
845 1 63.7703 209.257 -5.55112e-17
846 1 149.284 178.221 -5.55112e-17
847 1 60.8266 163.888 -5.55112e-17
848 1 172.89 106.617 -5.55112e-17
849 1 190.018 166.61 -5.55112e-17
850 1 18.6405 138.72 -5.55112e-17
851 1 96.4737 39.8313 -5.55112e-17
852 1 218.152 204.342 -5.55112e-17
853 1 40.6577 113.716 -5.55112e-17
854 1 171.663 85.1713 -5.55112e-17
855 1 135.492 27.6586 -5.55112e-17
856 1 212.673 170.996 -5.55112e-17