ITEM: TIMESTEP
0
ITEM: NUMBER OF ATOMS
7200
ITEM: BOX BOUNDS xy xz yz pp pp pp
0.0000000000000000e+00 2.1900000000000000e+02 0.0000000000000000e+00
0.0000000000000000e+00 2.1900000000000000e+02 0.0000000000000000e+00
-3.6499999999999999e-01 3.6499999999999999e-01 0.0000000000000000e+00
ITEM: ATOMS id type x y z
1 1 67.6527 134.515 -5.55112e-17
2 1 182.947 108.56 -5.55112e-17
3 1 12.6399 160.499 -5.55112e-17
4 1 7.11168 84.8065 -5.55112e-17
5 1 215.826 157.465 -5.55112e-17
6 1 117.073 210.47 -5.55112e-17
7 1 42.5956 51.8485 -5.55112e-17
8 2 149.091 82.8255 -5.55112e-17
9 1 203.436 9.59119 -5.55112e-17
10 2 58.2765 193.806 -5.55112e-17
11 1 114.711 14.622 -5.55112e-17
12 1 129.531 77.6884 -5.55112e-17
13 2 52.6527 79.6152 -5.55112e-17
14 1 65.1758 17.9667 -5.55112e-17
15 1 136.769 105.238 -5.55112e-17
16 2 61.0127 172.599 -5.55112e-17
17 1 113.927 30.6779 -5.55112e-17
18 2 32.3949 78.014 -5.55112e-17
19 1 106.636 52.3951 -5.55112e-17
20 1 144.178 103.039 -5.55112e-17
21 1 41.7873 5.33994 -5.55112e-17
22 2 49.9234 147.843 -5.55112e-17
23 2 16.1606 56.7943 -5.55112e-17
24 1 159.002 99.4693 -5.55112e-17
25 1 75.4337 183.018 -5.55112e-17
26 2 86.8351 96.9442 -5.55112e-17
27 1 155.768 174.494 -5.55112e-17
28 2 25.0259 158.446 -5.55112e-17
29 1 55.7625 46.7503 -5.55112e-17
30 1 139.654 88.1316 -5.55112e-17
31 1 211.723 90.498 -5.55112e-17
32 1 58.069 104.197 -5.55112e-17
33 1 157.299 154.584 -5.55112e-17
34 1 61.6047 77.3197 -5.55112e-17
35 1 177.783 68.7408 -5.55112e-17
36 1 61.7993 74.7822 -5.55112e-17
37 2 136.354 140.858 -5.55112e-17
38 1 197.766 74.3904 -5.55112e-17
39 1 121.884 138.151 -5.55112e-17
40 1 165.48 164.129 -5.55112e-17
41 1 120.387 182.703 -5.55112e-17
42 1 102.582 36.6126 -5.55112e-17
43 1 135.639 60.8273 -5.55112e-17
44 1 107.578 23.3767 -5.55112e-17
45 1 215.405 84.4968 -5.55112e-17
46 1 27.9352 203.339 -5.55112e-17
47 1 88.5859 172.377 -5.55112e-17
48 2 46.618 84.8412 -5.55112e-17
49 1 76.7456 110.305 -5.55112e-17
50 1 45.8889 197.622 -5.55112e-17
51 1 181.347 34.8172 -5.55112e-17
52 1 203.763 132.571 -5.55112e-17
53 1 156.967 27.5487 -5.55112e-17
54 1 32.9028 127.995 -5.55112e-17
55 1 23.6985 48.4509 -5.55112e-17
56 1 117.39 140.37 -5.55112e-17
57 2 67.6448 214.985 -5.55112e-17
58 1 35.5429 40.6226 -5.55112e-17
59 1 30.0168 151.754 -5.55112e-17
60 2 151.828 147.05 -5.55112e-17
61 2 35.5615 202.704 -5.55112e-17
62 1 13.8545 158.398 -5.55112e-17
63 1 111.759 198.007 -5.55112e-17
64 1 133.79 39.0432 -5.55112e-17
65 1 214.076 114.167 -5.55112e-17
66 1 128.985 134.241 -5.55112e-17
67 1 95.8712 139.995 -5.55112e-17
68 1 66.9689 116.216 -5.55112e-17
69 1 140.797 174.216 -5.55112e-17
70 1 58.7348 110.438 -5.55112e-17
71 1 7.40825 125.92 -5.55112e-17
72 1 172.094 60.7942 -5.55112e-17
73 1 187.8 185.64 -5.55112e-17
74 1 207.153 21.5552 -5.55112e-17
75 2 93.5226 1.03762 -5.55112e-17
76 1 17.4071 5.06585 -5.55112e-17
77 1 35.8535 22.2306 -5.55112e-17
78 1 124.686 117.054 -5.55112e-17
79 2 126.148 1.0882 -5.55112e-17
80 1 75.2595 105.914 -5.55112e-17
81 1 110.393 140.965 -5.55112e-17
82 1 53.9203 141.597 -5.55112e-17
83 2 129.493 182.597 -5.55112e-17
84 1 180.225 80.5143 -5.55112e-17
85 1 23.7883 44.3445 -5.55112e-17
86 1 128.307 142.337 -5.55112e-17
87 1 217.238 217.169 -5.55112e-17
88 1 19.1148 35.2665 -5.55112e-17
89 2 43.6711 3.249 -5.55112e-17
90 2 190.19 187.08 -5.55112e-17
91 1 149.534 90.1855 -5.55112e-17
92 2 168.853 21.411 -5.55112e-17
93 1 141.12 15.2225 -5.55112e-17
94 2 201.883 12.5708 -5.55112e-17
95 1 33.1749 194.964 -5.55112e-17
96 1 130.595 95.3304 -5.55112e-17
97 1 96.9513 4.64324 -5.55112e-17
98 1 125.856 54.9331 -5.55112e-17
99 1 178.71 21.9596 -5.55112e-17
100 1 175.889 9.00084 -5.55112e-17
101 1 111.349 4.73467 -5.55112e-17
102 1 25.1377 46.4409 -5.55112e-17
103 1 58.2757 80.6848 -5.55112e-17
104 1 66.516 108.671 -5.55112e-17
105 1 142.193 201.342 -5.55112e-17
106 1 77.9687 102.41 -5.55112e-17
107 2 146.573 101.126 -5.55112e-17
108 1 36.0494 210.373 -5.55112e-17
109 1 52.734 87.1286 -5.55112e-17
110 1 102.925 59.8315 -5.55112e-17
111 1 60.8534 20.9793 -5.55112e-17
112 1 95.2246 137.321 -5.55112e-17
113 1 101.894 49.0469 -5.55112e-17
114 1 158.942 23.3806 -5.55112e-17
115 1 51.4612 163.171 -5.55112e-17
116 2 214.012 133.641 -5.55112e-17
117 1 201.271 216.379 -5.55112e-17
118 1 165.496 67.8459 -5.55112e-17
119 2 60.2209 99.3791 -5.55112e-17
120 1 52.7956 199.583 -5.55112e-17
121 1 152.265 83.549 -5.55112e-17
122 1 103.041 14.7123 -5.55112e-17
123 1 137.052 75.6294 -5.55112e-17
124 1 154.607 201.516 -5.55112e-17
125 1 141.263 117.398 -5.55112e-17
126 1 114.551 65.1416 -5.55112e-17
127 1 163.915 78.2736 -5.55112e-17
128 1 175.096 136.834 -5.55112e-17
129 1 7.97542 103.932 -5.55112e-17
130 1 84.2113 128.818 -5.55112e-17
131 1 175.427 152.541 -5.55112e-17
132 2 183.126 1.84446 -5.55112e-17
133 1 127.469 79.1794 -5.55112e-17
134 1 33.5287 85.6275 -5.55112e-17
135 1 78.3524 8.66388 -5.55112e-17
136 1 210.069 201.342 -5.55112e-17
137 1 102.1 136.994 -5.55112e-17
138 1 50.0382 212.234 -5.55112e-17
139 1 202.417 105.393 -5.55112e-17
140 2 141.773 186.214 -5.55112e-17
141 1 205.997 96.1447 -5.55112e-17
142 2 212.218 49.0027 -5.55112e-17
143 1 111.78 80.7215 -5.55112e-17
144 2 43.0829 199.24 -5.55112e-17
145 1 172.549 103.19 -5.55112e-17
146 1 99.8675 119.911 -5.55112e-17
147 1 154.411 145.901 -5.55112e-17
148 1 6.08607 203.281 -5.55112e-17
149 1 68.0706 21.1243 -5.55112e-17
150 1 54.2567 37.1746 -5.55112e-17
151 1 28.0319 116.651 -5.55112e-17
152 1 62.5249 101.552 -5.55112e-17
153 2 51.9394 6.2899 -5.55112e-17
154 1 149.623 94.3454 -5.55112e-17
155 1 107.895 16.8181 -5.55112e-17
156 2 72.0156 116.214 -5.55112e-17
157 1 207.499 104.439 -5.55112e-17
158 1 28.7873 29.333 -5.55112e-17
159 1 21.1357 136.858 -5.55112e-17
160 1 14.2707 201.86 -5.55112e-17
161 1 1.43286 7.87165 -5.55112e-17
162 1 127.645 127.081 -5.55112e-17
163 1 17.8663 32.858 -5.55112e-17
164 1 167.386 52.8394 -5.55112e-17
165 1 125.239 121.615 -5.55112e-17
166 2 160.027 60.6309 -5.55112e-17
167 1 175.349 46.8115 -5.55112e-17
168 1 149.07 169.81 -5.55112e-17
169 1 1.7684 101.946 -5.55112e-17
170 1 95.0613 168.564 -5.55112e-17
171 1 146.921 60.7216 -5.55112e-17
172 1 218.895 17.1531 -5.55112e-17
173 1 46.2034 143.217 -5.55112e-17
174 1 131.475 62.3407 -5.55112e-17
175 2 137.305 161.051 -5.55112e-17
176 1 110.226 70.2758 -5.55112e-17
177 2 71.0451 57.4833 -5.55112e-17
178 1 63.29 86.8571 -5.55112e-17
179 1 173.229 163.919 -5.55112e-17
180 1 203.28 197.014 -5.55112e-17
181 1 134.556 167.789 -5.55112e-17
182 2 77.474 20.8575 -5.55112e-17
183 1 76.5968 164.086 -5.55112e-17
184 1 176.249 86.6882 -5.55112e-17
185 2 177.281 19.3657 -5.55112e-17
186 2 208.653 133.796 -5.55112e-17
187 1 93.3175 28.8377 -5.55112e-17
188 1 102.767 170.306 -5.55112e-17
189 1 123.403 175.295 -5.55112e-17
190 2 13.475 163.174 -5.55112e-17
191 1 77.4401 157.39 -5.55112e-17
192 2 63.871 109.558 -5.55112e-17
193 2 79.7333 172.129 -5.55112e-17
194 1 33.2972 149.266 -5.55112e-17
195 1 145.12 163.632 -5.55112e-17
196 1 168.338 191.868 -5.55112e-17
197 1 74.457 69.9174 -5.55112e-17
198 2 9.50999 133.166 -5.55112e-17
199 1 210.832 56.866 -5.55112e-17
200 1 80.3297 6.86396 -5.55112e-17
201 2 71.8285 109.662 -5.55112e-17
202 1 52.2257 210.978 -5.55112e-17
203 1 175.836 81.3762 -5.55112e-17
204 1 188.018 156.748 -5.55112e-17
205 2 192.424 82.2607 -5.55112e-17
206 1 89.9031 133.113 -5.55112e-17
207 1 105.043 29.9384 -5.55112e-17
208 1 34.2003 82.8177 -5.55112e-17
209 1 81.9969 2.53512 -5.55112e-17
210 1 8.72291 66.7171 -5.55112e-17
211 2 146.587 156.431 -5.55112e-17
212 1 120.499 112.656 -5.55112e-17
213 1 134.713 104.06 -5.55112e-17
214 1 74.2733 13.9007 -5.55112e-17
215 1 73.8996 201.805 -5.55112e-17
216 1 193.242 139.039 -5.55112e-17
217 1 126.517 187.376 -5.55112e-17
218 2 27.9297 168.123 -5.55112e-17
219 1 155.365 213.632 -5.55112e-17
220 2 106.27 55.3404 -5.55112e-17
221 1 213.381 56.2829 -5.55112e-17
222 1 143.253 146.53 -5.55112e-17
223 1 52.2908 208.269 -5.55112e-17
224 2 9.53745 188.472 -5.55112e-17
225 1 201.32 142.336 -5.55112e-17
226 1 138.816 190.246 -5.55112e-17
227 2 51.1283 17.3472 -5.55112e-17
228 1 138.988 77.015 -5.55112e-17
229 1 60.7488 135.839 -5.55112e-17
230 1 158.834 130.918 -5.55112e-17
231 1 148.525 122.831 -5.55112e-17
232 1 216.342 89.4562 -5.55112e-17
233 1 107.956 100.208 -5.55112e-17
234 1 133.858 216.263 -5.55112e-17
235 1 20.2611 143.853 -5.55112e-17
236 1 44.3313 76.9283 -5.55112e-17
237 1 199.141 8.23788 -5.55112e-17
238 1 147.587 128.197 -5.55112e-17
239 2 17.0804 112.301 -5.55112e-17
240 1 99.4363 5.76477 -5.55112e-17
241 2 187.48 16.9512 -5.55112e-17
242 2 198.717 37.0219 -5.55112e-17
243 2 114.752 27.9452 -5.55112e-17
244 1 97.5255 7.15548 -5.55112e-17
245 1 85.1423 59.1187 -5.55112e-17
246 1 126.394 119.166 -5.55112e-17
247 1 210.867 98.3093 -5.55112e-17
248 1 94.3576 3.74787 -5.55112e-17
249 1 23.0661 65.8607 -5.55112e-17
250 2 149.78 30.0426 -5.55112e-17
251 1 153.423 212.157 -5.55112e-17
252 1 195.654 64.2273 -5.55112e-17
253 1 94.7104 61.295 -5.55112e-17
254 2 76.5516 197.534 -5.55112e-17
255 1 212.439 148.652 -5.55112e-17
256 1 84.6398 165.901 -5.55112e-17
257 1 211.853 151.205 -5.55112e-17
258 2 164.74 28.0591 -5.55112e-17
259 1 58.4133 165.446 -5.55112e-17
260 1 127.292 11.4177 -5.55112e-17
261 1 184.935 14.2324 -5.55112e-17
262 1 53.0592 52.0895 -5.55112e-17
263 1 12.4123 213.939 -5.55112e-17
264 1 172.556 43.0121 -5.55112e-17
265 1 166.392 22.8131 -5.55112e-17
266 1 155.401 9.36937 -5.55112e-17
267 1 3.30737 64.6962 -5.55112e-17
268 1 21.5918 35.6951 -5.55112e-17
269 1 125.847 94.7239 -5.55112e-17
270 1 141.263 106.235 -5.55112e-17
271 1 13.8094 91.9066 -5.55112e-17
272 1 158.923 202.12 -5.55112e-17
273 1 40.3919 168.754 -5.55112e-17
274 2 113.462 87.8058 -5.55112e-17
275 1 63.7886 5.10317 -5.55112e-17
276 2 54.3517 31.9695 -5.55112e-17
277 2 167.077 121.82 -5.55112e-17
278 1 38.772 101.095 -5.55112e-17
279 2 109.75 204.843 -5.55112e-17
280 1 60.2761 31.811 -5.55112e-17
281 1 147.108 26.0264 -5.55112e-17
282 1 164.467 8.02677 -5.55112e-17
283 1 112.839 141.85 -5.55112e-17
284 1 136.318 165.88 -5.55112e-17
285 1 35.8952 12.723 -5.55112e-17
286 2 33.7169 214.876 -5.55112e-17
287 1 83.0795 135.488 -5.55112e-17
288 1 21.2146 57.5733 -5.55112e-17
289 1 71.7223 54.6684 -5.55112e-17
290 1 150.71 193.275 -5.55112e-17
291 1 158.343 144.601 -5.55112e-17
292 2 19.7919 181.217 -5.55112e-17
293 2 65.3955 194.65 -5.55112e-17
294 1 111.876 39.9398 -5.55112e-17
295 1 125.138 47.7751 -5.55112e-17
296 1 135.031 41.3222 -5.55112e-17
297 1 118.698 145.229 -5.55112e-17
298 1 104.88 198.448 -5.55112e-17
299 1 160.369 106.419 -5.55112e-17
300 2 62.5073 93.8201 -5.55112e-17
301 1 58.8032 43.5541 -5.55112e-17
302 1 126.859 193.167 -5.55112e-17
303 2 198.932 59.9257 -5.55112e-17
304 2 144.806 129.394 -5.55112e-17
305 1 86.3719 99.7087 -5.55112e-17
306 1 51.1469 73.8084 -5.55112e-17
307 1 31.5051 120.052 -5.55112e-17
308 1 162.208 58.871 -5.55112e-17
309 2 72.9434 184.149 -5.55112e-17
310 1 194.461 213.043 -5.55112e-17
311 1 80.1515 33.8155 -5.55112e-17
312 1 192.054 147.865 -5.55112e-17
313 2 147.805 65.8796 -5.55112e-17
314 1 53.071 132.302 -5.55112e-17
315 1 111.4 151.019 -5.55112e-17
316 1 72.7737 1.17253 -5.55112e-17
317 1 14.0142 99.3427 -5.55112e-17
318 1 100.266 215.171 -5.55112e-17
319 1 51.3967 32.7145 -5.55112e-17
320 1 144.428 99.3483 -5.55112e-17
321 1 88.4598 203.839 -5.55112e-17
322 1 140.747 139.045 -5.55112e-17
323 1 188.037 108.05 -5.55112e-17
324 1 81.3469 26.772 -5.55112e-17
325 1 162.582 139.231 -5.55112e-17
326 1 85.1104 152.027 -5.55112e-17
327 2 149.507 186.115 -5.55112e-17
328 1 167.809 40.6564 -5.55112e-17
329 2 47.3572 115.057 -5.55112e-17
330 1 22.4686 106.349 -5.55112e-17
331 1 174.737 176.142 -5.55112e-17
332 2 112.704 104.121 -5.55112e-17
333 1 44.6253 17.6994 -5.55112e-17
334 1 139.403 169.272 -5.55112e-17
335 1 13.1565 204.27 -5.55112e-17
336 1 212.749 106.233 -5.55112e-17
337 1 102.408 182.483 -5.55112e-17
338 1 160.018 57.7227 -5.55112e-17
339 1 109.115 216.972 -5.55112e-17
340 1 153.419 141.362 -5.55112e-17
341 1 160.244 158.483 -5.55112e-17
342 1 128.649 144.776 -5.55112e-17
343 1 127.761 29.0672 -5.55112e-17
344 1 63.1096 181.858 -5.55112e-17
345 1 60.9267 109 -5.55112e-17
346 1 9.35694 127.685 -5.55112e-17
347 1 92.628 92.4873 -5.55112e-17
348 1 163.746 179.314 -5.55112e-17
349 1 193.665 75.1077 -5.55112e-17
350 2 89.313 40.4641 -5.55112e-17
351 1 155.288 66.2721 -5.55112e-17
352 1 60.6664 183.335 -5.55112e-17
353 1 38.9501 166.447 -5.55112e-17
354 1 167.792 161.767 -5.55112e-17
355 1 58.3015 156.437 -5.55112e-17
356 1 23.8132 37.2256 -5.55112e-17
357 1 62.5992 158.523 -5.55112e-17
358 1 171.927 180.968 -5.55112e-17
359 1 157.682 159.09 -5.55112e-17
360 1 74.4301 54.175 -5.55112e-17
361 1 62.9025 167.541 -5.55112e-17
362 1 168.855 201.181 -5.55112e-17
363 1 163.647 190.248 -5.55112e-17
364 2 116.631 92.4132 -5.55112e-17
365 1 178.695 90.4478 -5.55112e-17
366 1 117.3 161.254 -5.55112e-17
367 1 173.841 7.08225 -5.55112e-17
368 1 196.73 192.196 -5.55112e-17
369 2 115.173 188.276 -5.55112e-17
370 1 14.8701 206.276 -5.55112e-17
371 1 53.7811 136.771 -5.55112e-17
372 2 0.375667 93.9625 -5.55112e-17
373 2 212.764 7.86783 -5.55112e-17
374 1 151.095 88.1719 -5.55112e-17
375 1 37.0221 111.823 -5.55112e-17
376 1 14.2164 152.345 -5.55112e-17
377 1 28.802 213.017 -5.55112e-17
378 1 75.0813 129.341 -5.55112e-17
379 1 38.1744 64.7041 -5.55112e-17
380 1 177.586 151.167 -5.55112e-17
381 1 13.5076 5.67223 -5.55112e-17
382 1 54.6167 67.3143 -5.55112e-17
383 1 170.276 67.7375 -5.55112e-17
384 1 21.8938 14.1676 -5.55112e-17
385 1 191.868 76.8477 -5.55112e-17
386 2 82.0783 44.3147 -5.55112e-17
387 1 144.485 18.9947 -5.55112e-17
388 1 56.2895 44.0388 -5.55112e-17
389 1 206.312 159.035 -5.55112e-17
390 2 207.02 179.54 -5.55112e-17
391 2 36.2217 37.8472 -5.55112e-17
392 1 41.3564 217.99 -5.55112e-17
393 1 0.852338 33.4664 -5.55112e-17
394 1 103.011 101.626 -5.55112e-17
395 1 16.1518 27.7286 -5.55112e-17
396 1 202.66 153.51 -5.55112e-17
397 1 100.903 16.3006 -5.55112e-17
398 1 11.1468 191.039 -5.55112e-17
399 1 19.528 62.1104 -5.55112e-17
400 1 102.886 179.969 -5.55112e-17
401 1 87.7021 176.635 -5.55112e-17
402 2 191.125 178.553 -5.55112e-17
403 1 214.758 54.0637 -5.55112e-17
404 1 36.0607 71.1899 -5.55112e-17
405 1 204.534 29.0819 -5.55112e-17
406 1 201.238 67.908 -5.55112e-17
407 2 18.2455 64.9619 -5.55112e-17
408 1 34.3173 35.5942 -5.55112e-17
409 1 169.173 128.992 -5.55112e-17
410 1 20.5976 156.254 -5.55112e-17
411 1 151.771 160.684 -5.55112e-17
412 1 114.704 214.863 -5.55112e-17
413 1 63.3167 156.218 -5.55112e-17
414 1 38.3539 13.9898 -5.55112e-17
415 1 207.838 147.906 -5.55112e-17
416 1 71.8079 200.348 -5.55112e-17
417 1 141.063 93.6792 -5.55112e-17
418 2 184.355 7.21194 -5.55112e-17
419 1 108.866 150.297 -5.55112e-17
420 2 136.771 108.687 -5.55112e-17
421 1 88.213 103.836 -5.55112e-17
422 1 176.29 22.436 -5.55112e-17
423 2 158.322 40.8185 -5.55112e-17
424 1 157.029 149.066 -5.55112e-17
425 1 129.191 167.351 -5.55112e-17
426 1 133.163 112.533 -5.55112e-17
427 1 44.6133 79.8789 -5.55112e-17
428 1 70.905 191.814 -5.55112e-17
429 1 195.173 83.3188 -5.55112e-17
430 1 215.267 60.103 -5.55112e-17
431 1 120.293 206.653 -5.55112e-17
432 1 161.826 53.6936 -5.55112e-17
433 1 105.208 153.944 -5.55112e-17
434 1 71.4257 30.5421 -5.55112e-17
435 1 178.074 161.852 -5.55112e-17
436 1 41.7578 37.3124 -5.55112e-17
437 1 175.583 109.275 -5.55112e-17
438 2 109.86 21.7447 -5.55112e-17
439 1 67.079 209.136 -5.55112e-17
440 1 1.28832 162.827 -5.55112e-17
441 1 192.552 131.498 -5.55112e-17
442 1 50.9937 13.9432 -5.55112e-17
443 1 158.288 104.95 -5.55112e-17
444 1 218.393 101.196 -5.55112e-17
445 1 137.429 8.90224 -5.55112e-17
446 1 132.206 78.9051 -5.55112e-17
447 1 39.2278 144.913 -5.55112e-17
448 1 75.9463 7.41684 -5.55112e-17
449 1 131.867 120.373 -5.55112e-17
450 1 139.626 188.002 -5.55112e-17
451 1 170.819 47.6124 -5.55112e-17
452 1 133.192 144.658 -5.55112e-17
453 1 178.958 182.514 -5.55112e-17
454 1 159.959 211.619 -5.55112e-17
455 1 100.688 72.47 -5.55112e-17
456 1 167.524 27.0786 -5.55112e-17
457 1 97.9763 113.37 -5.55112e-17
458 1 198.459 0.562216 -5.55112e-17
459 1 81.7158 69.4479 -5.55112e-17
460 1 49.0468 101.941 -5.55112e-17
461 1 188.302 177.799 -5.55112e-17
462 1 181.739 116.105 -5.55112e-17
463 1 127.05 33.2807 -5.55112e-17
464 1 154.737 195.288 -5.55112e-17
465 1 121.541 160.159 -5.55112e-17
466 1 24.3188 214.133 -5.55112e-17
467 1 17.7477 82.2844 -5.55112e-17
468 1 161.354 218.652 -5.55112e-17
469 1 68.6738 77.7612 -5.55112e-17
470 1 78.1786 38.0612 -5.55112e-17
471 1 128.568 174.935 -5.55112e-17
472 1 48.6705 82.8437 -5.55112e-17
473 1 27.3514 105.065 -5.55112e-17
474 1 88.6879 101.225 -5.55112e-17
475 1 184.916 163.894 -5.55112e-17
476 2 191.823 12.1955 -5.55112e-17
477 1 50.7136 88.4744 -5.55112e-17
478 1 58.8947 124.946 -5.55112e-17
479 1 202.23 80.3549 -5.55112e-17
480 1 85.328 23.5178 -5.55112e-17
481 1 15.2825 94.4595 -5.55112e-17
482 1 99.6505 159.887 -5.55112e-17
483 1 141.833 160.195 -5.55112e-17
484 2 87.2118 45.8793 -5.55112e-17
485 1 34.1048 97.9052 -5.55112e-17
486 1 81.5416 17.3122 -5.55112e-17
487 1 100.783 196.654 -5.55112e-17
488 1 5.72122 121.387 -5.55112e-17
489 1 211.311 134.797 -5.55112e-17
490 1 205.73 83.5521 -5.55112e-17
491 1 197.217 121.663 -5.55112e-17
492 1 2.34092 128.887 -5.55112e-17
493 1 193.409 210.621 -5.55112e-17
494 1 211.515 38.1934 -5.55112e-17
495 1 198.897 89.3739 -5.55112e-17
496 2 43.7996 189.26 -5.55112e-17
497 1 39.1247 216.841 -5.55112e-17
498 1 104.842 120.952 -5.55112e-17
499 2 136.695 216.467 -5.55112e-17
500 1 26.4317 30.0972 -5.55112e-17
501 2 112.507 216.704 -5.55112e-17
502 2 123.647 143.302 -5.55112e-17
503 1 144.684 185.044 -5.55112e-17
504 1 113.112 148.895 -5.55112e-17
505 1 118.075 18.4043 -5.55112e-17
506 1 25.3806 116.748 -5.55112e-17
507 1 13.7704 130.095 -5.55112e-17
508 1 196.326 217.503 -5.55112e-17
509 2 28.5095 73.4549 -5.55112e-17
510 2 145.975 133.456 -5.55112e-17
511 1 196.319 35.4143 -5.55112e-17
512 2 210.261 59.7125 -5.55112e-17
513 1 57.2703 126.836 -5.55112e-17
514 1 48.7866 19.062 -5.55112e-17
515 1 204.307 25.0427 -5.55112e-17
516 1 182.317 206.582 -5.55112e-17
517 1 111.898 117.328 -5.55112e-17
518 2 103.594 20.5052 -5.55112e-17
519 1 12.6232 53.5579 -5.55112e-17
520 2 212.426 23.0463 -5.55112e-17
521 1 88.8931 110.9 -5.55112e-17
522 1 30.8411 31.1194 -5.55112e-17
523 1 24.3837 68.1718 -5.55112e-17
524 1 100.331 74.9181 -5.55112e-17
525 1 174.773 120.99 -5.55112e-17
526 1 191.166 64.8717 -5.55112e-17
527 1 75.6067 4.97209 -5.55112e-17
528 1 169.433 28.613 -5.55112e-17
529 1 57.0305 158.63 -5.55112e-17
530 1 99.8112 32.0975 -5.55112e-17
531 1 66.4656 197.67 -5.55112e-17
532 1 206.617 188.101 -5.55112e-17
533 1 134.09 151.591 -5.55112e-17
534 1 97.4878 144.759 -5.55112e-17
535 1 14.3803 104.722 -5.55112e-17
536 1 203.611 117.667 -5.55112e-17
537 1 201.339 166.624 -5.55112e-17
538 1 168.855 80.9667 -5.55112e-17
539 1 89.0471 211.815 -5.55112e-17
540 1 105.432 87.8493 -5.55112e-17
541 1 43.0355 58.446 -5.55112e-17
542 1 67.1553 211.641 -5.55112e-17
543 1 147.159 152.093 -5.55112e-17
544 1 129.119 200.631 -5.55112e-17
545 1 7.7679 149.664 -5.55112e-17
546 1 179.423 41.216 -5.55112e-17
547 1 82.815 172.179 -5.55112e-17
548 1 99.6797 8.38172 -5.55112e-17
549 1 51.9194 76.2035 -5.55112e-17
550 2 162.622 121.459 -5.55112e-17
551 2 134.279 157.997 -5.55112e-17
552 2 93.1997 180.791 -5.55112e-17
553 1 122.468 41.8798 -5.55112e-17
554 1 73.4749 101.485 -5.55112e-17
555 2 65.8028 123.559 -5.55112e-17
556 1 148.773 22.045 -5.55112e-17
557 1 76.3727 12.6093 -5.55112e-17
558 1 148.075 125.365 -5.55112e-17
559 1 188.018 47.2863 -5.55112e-17
560 1 131.727 51.225 -5.55112e-17
561 1 146.582 168.767 -5.55112e-17
562 1 195.33 144.421 -5.55112e-17
563 2 167.966 113.959 -5.55112e-17
564 1 42.0683 67.3685 -5.55112e-17
565 1 59.9755 10.2043 -5.55112e-17
566 1 75.2909 34.6157 -5.55112e-17
567 1 150.229 110.838 -5.55112e-17
568 1 26.9961 119.016 -5.55112e-17
569 1 114.028 185.693 -5.55112e-17
570 1 125.068 124.388 -5.55112e-17
571 1 175.501 203.913 -5.55112e-17
572 1 61.5911 111.494 -5.55112e-17
573 1 177.658 76.6744 -5.55112e-17
574 1 42.5394 131.388 -5.55112e-17
575 1 21.7121 77.6781 -5.55112e-17
576 1 196.44 98.5464 -5.55112e-17
577 1 202.991 33.394 -5.55112e-17
578 1 123.01 196.941 -5.55112e-17
579 1 12.89 165.899 -5.55112e-17
580 1 102.985 139.266 -5.55112e-17
581 1 141.049 154.499 -5.55112e-17
582 1 76.0729 79.1132 -5.55112e-17
583 1 162.084 186.002 -5.55112e-17
584 2 30.6984 122.617 -5.55112e-17
585 1 48.0326 198.645 -5.55112e-17
586 1 137.607 171.245 -5.55112e-17
587 1 99.6745 105.088 -5.55112e-17
588 1 17.1747 1.99582 -5.55112e-17
589 1 103.602 17.4539 -5.55112e-17
590 1 70.3629 0.32501 -5.55112e-17
591 1 215.519 162.714 -5.55112e-17
592 1 55.9944 156.111 -5.55112e-17
593 1 209.175 181.486 -5.55112e-17
594 1 181.325 181.156 -5.55112e-17
595 1 83.0758 39.4354 -5.55112e-17
596 1 66.3211 36.0271 -5.55112e-17
597 2 180.294 204.404 -5.55112e-17
598 1 166.962 211.518 -5.55112e-17
599 1 207.799 171.142 -5.55112e-17
600 1 104.972 10.6696 -5.55112e-17
601 1 11.4614 135.239 -5.55112e-17
602 1 97.9465 30.4895 -5.55112e-17
603 1 207.608 202.547 -5.55112e-17
604 1 120.276 1.13766 -5.55112e-17
605 2 85.8874 77.9021 -5.55112e-17
606 1 102.472 202.258 -5.55112e-17
607 2 171.761 146.83 -5.55112e-17
608 1 95.545 77.0061 -5.55112e-17
609 1 15.8113 6.74484 -5.55112e-17
610 1 214.111 150.451 -5.55112e-17
611 1 201.469 190.057 -5.55112e-17
612 1 218.491 37.9286 -5.55112e-17
613 1 59.1844 150.784 -5.55112e-17
614 2 127.556 179.778 -5.55112e-17
615 1 105.969 18.5297 -5.55112e-17
616 1 202.055 130.582 -5.55112e-17
617 1 127.335 198.582 -5.55112e-17
618 1 201.146 212.27 -5.55112e-17
619 1 179.605 78.0553 -5.55112e-17
620 1 143.133 140.221 -5.55112e-17
621 1 197.547 93.621 -5.55112e-17
622 1 95.3382 213.799 -5.55112e-17
623 1 218.683 12.3234 -5.55112e-17
624 1 23.7196 209.547 -5.55112e-17
625 1 204.771 154.608 -5.55112e-17
626 1 93.7365 191.421 -5.55112e-17
627 1 64.1734 73.8882 -5.55112e-17
628 1 34.0823 28.601 -5.55112e-17
629 1 10.2953 95.0415 -5.55112e-17
630 2 151.714 22.3376 -5.55112e-17
631 1 16.3066 87.2745 -5.55112e-17
632 1 48.4186 92.2192 -5.55112e-17
633 1 38.6461 211.311 -5.55112e-17
634 1 0.969712 147.686 -5.55112e-17
635 1 154.893 150.859 -5.55112e-17
636 1 208.296 57.3915 -5.55112e-17
637 1 201.427 58.2767 -5.55112e-17
638 1 173.123 76.5085 -5.55112e-17
639 2 204.174 78.2262 -5.55112e-17
640 1 143.137 152.705 -5.55112e-17
641 1 193.45 85.2359 -5.55112e-17
642 1 31.0554 91.0429 -5.55112e-17
643 2 182.317 42.6058 -5.55112e-17
644 1 68.5798 154.43 -5.55112e-17
645 1 106.483 196.397 -5.55112e-17
646 2 211.79 141.431 -5.55112e-17
647 1 10.7382 185.386 -5.55112e-17
648 1 132.546 102.741 -5.55112e-17
649 2 22.5914 148.241 -5.55112e-17
650 1 204.241 186.688 -5.55112e-17
651 1 218.258 113.145 -5.55112e-17
652 1 153.736 44.0016 -5.55112e-17
653 1 114.273 175.898 -5.55112e-17
654 1 23.1813 21.7068 -5.55112e-17
655 2 183.866 100.841 -5.55112e-17
656 1 27.0642 126.371 -5.55112e-17
657 2 78.7925 207.07 -5.55112e-17
658 1 53.7527 43.8845 -5.55112e-17
659 2 156.164 192.918 -5.55112e-17
660 1 101.57 54.4025 -5.55112e-17
661 1 42.2996 116.716 -5.55112e-17
662 1 82.164 130.336 -5.55112e-17
663 1 32.2465 26.3365 -5.55112e-17
664 1 146.914 18.272 -5.55112e-17
665 1 140.436 75.0172 -5.55112e-17
666 2 47.6759 180.742 -5.55112e-17
667 1 93.4754 99.552 -5.55112e-17
668 2 102.663 91.6516 -5.55112e-17
669 1 35.9248 17.7647 -5.55112e-17
670 1 96.3116 173.839 -5.55112e-17
671 2 53.7234 176.092 -5.55112e-17
672 1 186.187 12.0544 -5.55112e-17
673 1 63.1235 19.6763 -5.55112e-17
674 1 2.44542 31.7841 -5.55112e-17
675 1 128.403 23.4943 -5.55112e-17
676 1 169.425 123.645 -5.55112e-17
677 1 131.461 175.18 -5.55112e-17
678 1 137.9 30.3999 -5.55112e-17
679 2 152.364 33.5011 -5.55112e-17
680 1 203.066 41.5254 -5.55112e-17
681 2 129.33 118.905 -5.55112e-17
682 1 0.487209 47.6926 -5.55112e-17
683 1 68.4497 4.36736 -5.55112e-17
684 1 119.883 155.053 -5.55112e-17
685 1 153.031 38.9551 -5.55112e-17
686 1 27.5459 193.73 -5.55112e-17
687 1 118.336 191.999 -5.55112e-17
688 1 162.554 110.267 -5.55112e-17
689 2 58.539 46.3223 -5.55112e-17
690 1 70.3977 19.9242 -5.55112e-17
691 1 89.7003 66.5149 -5.55112e-17
692 1 130.601 8.07674 -5.55112e-17
693 1 48.769 142.949 -5.55112e-17
694 1 76.5732 124.931 -5.55112e-17
695 1 146.4 38.4519 -5.55112e-17
696 1 146.397 81.2278 -5.55112e-17
697 1 139.658 201.593 -5.55112e-17
698 1 116.967 65.4119 -5.55112e-17
699 1 180.501 191.918 -5.55112e-17
700 1 205.43 209.451 -5.55112e-17
701 1 54.1713 17.2982 -5.55112e-17
702 1 113.435 128.571 -5.55112e-17
703 2 188.03 144.29 -5.55112e-17
704 1 29.3948 218.734 -5.55112e-17
705 2 69.4197 111.925 -5.55112e-17
706 1 165.678 177.474 -5.55112e-17
707 1 114.121 25.105 -5.55112e-17
708 1 83.8405 209.491 -5.55112e-17
709 1 147.143 196.471 -5.55112e-17
710 1 191.893 191.763 -5.55112e-17
711 1 113.819 91.4204 -5.55112e-17
712 1 192.202 208.173 -5.55112e-17
713 1 13.6608 136.303 -5.55112e-17
714 1 135.555 13.1045 -5.55112e-17
715 1 55.5974 199.414 -5.55112e-17
716 1 36.0325 122.701 -5.55112e-17
717 1 51.6641 106.792 -5.55112e-17
718 1 130.645 185.447 -5.55112e-17
719 2 120.023 78.4202 -5.55112e-17
720 1 98.7747 65.2699 -5.55112e-17
721 1 96.2404 98.603 -5.55112e-17
722 1 134.206 62.918 -5.55112e-17
723 2 48.8049 45.8932 -5.55112e-17
724 1 15.6446 49.5617 -5.55112e-17
725 1 27.9922 111.959 -5.55112e-17
726 1 190.147 45.7016 -5.55112e-17
727 1 148.337 205.299 -5.55112e-17
728 2 20.9179 89.2892 -5.55112e-17
729 1 133.825 165.545 -5.55112e-17
730 1 174.278 199.454 -5.55112e-17
731 1 48.8317 190.122 -5.55112e-17
732 1 218.463 9.65158 -5.55112e-17
733 1 205.744 34.0566 -5.55112e-17
734 1 4.34185 30.0817 -5.55112e-17
735 1 40.2185 24.5182 -5.55112e-17
736 2 190.741 74.3519 -5.55112e-17
737 1 82.1598 86.6206 -5.55112e-17
738 1 16.1942 167.903 -5.55112e-17
739 1 105.931 156.48 -5.55112e-17
740 1 60.3309 115.743 -5.55112e-17
741 2 189.424 78.0113 -5.55112e-17
742 1 74.6898 43.5269 -5.55112e-17
743 1 203.1 66.5317 -5.55112e-17
744 2 210.423 172.79 -5.55112e-17
745 1 131.333 31.8854 -5.55112e-17
746 1 14.1238 29.545 -5.55112e-17
747 2 204.205 22.1858 -5.55112e-17
748 1 182.641 193.356 -5.55112e-17
749 1 196.215 211.005 -5.55112e-17
750 1 213.14 163.714 -5.55112e-17
751 1 59.7835 58.5787 -5.55112e-17
752 1 178.076 105.626 -5.55112e-17
753 1 99.308 151.007 -5.55112e-17
754 1 14.8485 215.44 -5.55112e-17
755 1 82.9509 195.271 -5.55112e-17
756 2 103.447 195.804 -5.55112e-17
757 1 27.2432 18.6675 -5.55112e-17
758 1 134.364 149.066 -5.55112e-17
759 1 72.8097 107.013 -5.55112e-17
760 1 95.5753 40.2842 -5.55112e-17
761 1 58.1592 161.006 -5.55112e-17
762 1 43.0223 23.5171 -5.55112e-17
763 1 114.975 99.463 -5.55112e-17
764 2 177.479 148.36 -5.55112e-17
765 1 94.0347 64.1012 -5.55112e-17
766 1 113.97 35.2467 -5.55112e-17
767 1 97.6548 78.5712 -5.55112e-17
768 1 9.71978 4.10309 -5.55112e-17
769 1 107.211 73.5917 -5.55112e-17
770 2 113.974 109.88 -5.55112e-17
771 1 143.341 179.046 -5.55112e-17
772 1 102.384 28.4875 -5.55112e-17
773 1 108.892 167.687 -5.55112e-17
774 1 111.019 123.853 -5.55112e-17
775 1 68.7379 6.93058 -5.55112e-17
776 1 38.0382 11.1498 -5.55112e-17
777 1 107.687 182.05 -5.55112e-17
778 1 22.7328 19.2442 -5.55112e-17
779 1 192.366 44.0792 -5.55112e-17
780 1 3.32025 169.334 -5.55112e-17
781 1 126.855 99.4413 -5.55112e-17
782 1 175.725 49.2658 -5.55112e-17
783 1 98.5204 15.451 -5.55112e-17
784 2 194.862 159.293 -5.55112e-17
785 1 110.959 165.635 -5.55112e-17
786 1 119.027 177.38 -5.55112e-17
787 1 185.714 74.8823 -5.55112e-17
788 1 177.497 44.9817 -5.55112e-17
789 2 142.904 108.631 -5.55112e-17
790 1 109.565 28.5246 -5.55112e-17
791 2 13.985 121.875 -5.55112e-17
792 2 215.965 13.6294 -5.55112e-17
793 2 116.017 68.0718 -5.55112e-17
794 1 56.1185 188.856 -5.55112e-17
795 1 132.644 53.4928 -5.55112e-17
796 1 130.625 21.8636 -5.55112e-17
797 1 197.719 155.323 -5.55112e-17
798 2 195.752 203.948 -5.55112e-17
799 2 207.972 65.0911 -5.55112e-17
800 2 55.1683 217.302 -5.55112e-17
801 1 102.791 132.138 -5.55112e-17
802 1 124.761 75.3302 -5.55112e-17
803 1 182.534 68.4606 -5.55112e-17
804 2 122.619 204.707 -5.55112e-17
805 1 44.7861 106.136 -5.55112e-17
806 1 11.4268 117.066 -5.55112e-17
807 2 100.953 99.6148 -5.55112e-17
808 1 14.2024 116.621 -5.55112e-17
809 2 57.9321 134.24 -5.55112e-17
810 1 129.798 198.135 -5.55112e-17
811 1 32.7837 5.87962 -5.55112e-17
812 1 132.214 34.2685 -5.55112e-17
813 2 108.254 110.702 -5.55112e-17
814 1 147.323 71.5306 -5.55112e-17
815 1 88.9594 164.52 -5.55112e-17
816 1 200.877 10.0326 -5.55112e-17
817 1 107.95 214.573 -5.55112e-17
818 1 57.6975 98.1367 -5.55112e-17
819 1 9.18778 136.202 -5.55112e-17
820 1 46.0142 118.915 -5.55112e-17
821 1 94.826 151.873 -5.55112e-17
822 2 44.5354 135.88 -5.55112e-17
823 2 138.988 91.3916 -5.55112e-17
824 1 34.9475 107.78 -5.55112e-17
825 1 65.0316 15.4424 -5.55112e-17
826 1 192.053 7.23406 -5.55112e-17
827 1 192.752 107.551 -5.55112e-17
828 1 142.293 123.391 -5.55112e-17
829 1 127.075 211.028 -5.55112e-17
830 1 82.0169 127.589 -5.55112e-17
831 1 217.899 42.6488 -5.55112e-17
832 1 93.6099 87.5337 -5.55112e-17
833 1 62.2292 84.5734 -5.55112e-17
834 1 106.872 9.16632 -5.55112e-17
835 1 56.0495 1.35934 -5.55112e-17
836 1 11.777 50.8277 -5.55112e-17
837 1 5.80183 73.3329 -5.55112e-17
838 1 97.6335 178.582 -5.55112e-17
839 2 198.036 3.39783 -5.55112e-17
840 1 5.47083 205.442 -5.55112e-17
841 2 62.9737 185.015 -5.55112e-17
842 1 95.1562 91.5206 -5.55112e-17
843 2 159.11 183.364 -5.55112e-17
844 1 29.0936 155.918 -5.55112e-17
845 1 70.9292 189.103 -5.55112e-17
846 1 158.862 191.114 -5.55112e-17
847 1 42.5417 140.939 -5.55112e-17
848 1 188.422 117.193 -5.55112e-17
849 1 189.226 166.715 -5.55112e-17
850 1 43.1877 128.806 -5.55112e-17
851 1 91.6101 42.3815 -5.55112e-17
852 1 11.3695 209.291 -5.55112e-17
853 1 31.869 138.743 -5.55112e-17
854 1 171.485 84.3616 -5.55112e-17
855 1 126.066 19.7711 -5.55112e-17
856 1 210.275 170.018 -5.55112e-17