ITEM: TIMESTEP
0
ITEM: NUMBER OF ATOMS
7200
ITEM: BOX BOUNDS xy xz yz pp pp pp
0.0000000000000000e+00 2.1900000000000000e+02 0.0000000000000000e+00
0.0000000000000000e+00 2.1900000000000000e+02 0.0000000000000000e+00
-3.6499999999999999e-01 3.6499999999999999e-01 0.0000000000000000e+00
ITEM: ATOMS id type x y z
1 1 67.9698 134.861 -5.55112e-17
2 1 183.173 108.609 -5.55112e-17
3 1 13.244 157.534 -5.55112e-17
4 1 3.85179 86.3589 -5.55112e-17
5 1 215.674 157.115 -5.55112e-17
6 1 117.284 210.667 -5.55112e-17
7 1 42.2246 51.8462 -5.55112e-17
8 2 149.282 82.9178 -5.55112e-17
9 1 203.298 9.28105 -5.55112e-17
10 2 57.8087 193.418 -5.55112e-17
11 1 115.025 14.8966 -5.55112e-17
12 1 129.353 77.847 -5.55112e-17
13 2 51.4182 79.542 -5.55112e-17
14 1 65.4002 18.0672 -5.55112e-17
15 1 136.851 105.743 -5.55112e-17
16 2 60.7161 172.516 -5.55112e-17
17 1 114.206 30.7705 -5.55112e-17
18 2 31.5966 79.2431 -5.55112e-17
19 1 106.68 52.513 -5.55112e-17
20 1 144.53 103.401 -5.55112e-17
21 1 41.9993 5.51193 -5.55112e-17
22 2 49.7317 147.93 -5.55112e-17
23 2 17.531 54.6907 -5.55112e-17
24 1 159.425 99.4818 -5.55112e-17
25 1 75.7138 182.951 -5.55112e-17
26 2 86.2189 96.9241 -5.55112e-17
27 1 156.017 174.39 -5.55112e-17
28 2 22.5806 156.249 -5.55112e-17
29 1 53.5189 46.9188 -5.55112e-17
30 1 139.571 88.284 -5.55112e-17
31 1 211.644 90.0759 -5.55112e-17
32 1 58.2066 104.453 -5.55112e-17
33 1 157.331 154.603 -5.55112e-17
34 1 61.1325 77.7217 -5.55112e-17
35 1 177.271 68.5707 -5.55112e-17
36 1 61.4606 75.4149 -5.55112e-17
37 2 136.425 140.672 -5.55112e-17
38 1 197.472 74.2843 -5.55112e-17
39 1 122.414 138.035 -5.55112e-17
40 1 165.855 163.576 -5.55112e-17
41 1 120.876 182.214 -5.55112e-17
42 1 103.135 36.3057 -5.55112e-17
43 1 135.373 60.8222 -5.55112e-17
44 1 107.523 23.403 -5.55112e-17
45 1 214.933 84.4367 -5.55112e-17
46 1 28.0206 203.676 -5.55112e-17
47 1 88.8932 172.676 -5.55112e-17
48 2 47.773 86.5333 -5.55112e-17
49 1 76.8324 110.662 -5.55112e-17
50 1 46.1227 197.722 -5.55112e-17
51 1 181.084 34.3545 -5.55112e-17
52 1 203.554 132.772 -5.55112e-17
53 1 156.761 27.3394 -5.55112e-17
54 1 24.3688 119.235 -5.55112e-17
55 1 22.8192 48.3938 -5.55112e-17
56 1 117.838 139.91 -5.55112e-17
57 2 67.9508 214.654 -5.55112e-17
58 1 32.6368 40.8718 -5.55112e-17
59 1 28.8641 151.866 -5.55112e-17
60 2 151.741 147.097 -5.55112e-17
61 2 35.906 203.029 -5.55112e-17
62 1 11.002 161.626 -5.55112e-17
63 1 111.998 197.846 -5.55112e-17
64 1 133.653 39.2943 -5.55112e-17
65 1 214.069 113.993 -5.55112e-17
66 1 129.142 134.349 -5.55112e-17
67 1 95.9378 140.041 -5.55112e-17
68 1 66.8989 116.651 -5.55112e-17
69 1 140.682 174.073 -5.55112e-17
70 1 58.9875 111.593 -5.55112e-17
71 1 7.58515 125.666 -5.55112e-17
72 1 171.75 60.5522 -5.55112e-17
73 1 187.889 185.501 -5.55112e-17
74 1 207.119 21.2294 -5.55112e-17
75 2 93.8841 1.46351 -5.55112e-17
76 1 17.8603 4.80422 -5.55112e-17
77 1 36.5057 24.5223 -5.55112e-17
78 1 124.679 117.303 -5.55112e-17
79 2 126.556 1.5482 -5.55112e-17
80 1 75.0168 106.589 -5.55112e-17
81 1 110.928 141.054 -5.55112e-17
82 1 54.1243 142.016 -5.55112e-17
83 2 130.049 182.272 -5.55112e-17
84 1 179.786 80.4991 -5.55112e-17
85 1 22.0064 41.3602 -5.55112e-17
86 1 128.343 142.409 -5.55112e-17
87 1 217.003 217.078 -5.55112e-17
88 1 19.1093 35.2915 -5.55112e-17
89 2 43.9271 3.44311 -5.55112e-17
90 2 190.486 186.948 -5.55112e-17
91 1 149.693 90.4589 -5.55112e-17
92 2 169.137 21.3979 -5.55112e-17
93 1 141.832 15.049 -5.55112e-17
94 2 202.056 12.2684 -5.55112e-17
95 1 33.6808 195.243 -5.55112e-17
96 1 130.474 95.7694 -5.55112e-17
97 1 97.2428 4.88016 -5.55112e-17
98 1 125.539 55.1915 -5.55112e-17
99 1 178.137 21.3404 -5.55112e-17
100 1 176.178 8.67706 -5.55112e-17
101 1 114.799 12.4629 -5.55112e-17
102 1 24.677 46.4023 -5.55112e-17
103 1 58.1788 80.7145 -5.55112e-17
104 1 68.7447 109.596 -5.55112e-17
105 1 142.66 201.34 -5.55112e-17
106 1 77.9718 102.996 -5.55112e-17
107 2 146.664 101.429 -5.55112e-17
108 1 36.187 210.641 -5.55112e-17
109 1 54.6637 89.4797 -5.55112e-17
110 1 107.989 63.2619 -5.55112e-17
111 1 61.0299 21.098 -5.55112e-17
112 1 95.2306 137.477 -5.55112e-17
113 1 99.5353 43.5486 -5.55112e-17
114 1 158.476 23.406 -5.55112e-17
115 1 51.0898 163.281 -5.55112e-17
116 2 214.086 133.481 -5.55112e-17
117 1 201.588 215.943 -5.55112e-17
118 1 165.008 68.0915 -5.55112e-17
119 2 58.0157 98.8957 -5.55112e-17
120 1 53.2207 199.561 -5.55112e-17
121 1 152.195 83.7811 -5.55112e-17
122 1 103.156 14.666 -5.55112e-17
123 1 137.147 75.9584 -5.55112e-17
124 1 154.896 201.508 -5.55112e-17
125 1 141.641 117.789 -5.55112e-17
126 1 111.731 65.6494 -5.55112e-17
127 1 163.602 77.9487 -5.55112e-17
128 1 175.271 136.497 -5.55112e-17
129 1 7.56017 104.158 -5.55112e-17
130 1 83.7472 128.987 -5.55112e-17
131 1 175.713 152.541 -5.55112e-17
132 2 183.668 1.86794 -5.55112e-17
133 1 127.398 79.5081 -5.55112e-17
134 1 35.3843 86.4412 -5.55112e-17
135 1 78.3468 8.2905 -5.55112e-17
136 1 210.177 200.942 -5.55112e-17
137 1 101.877 136.937 -5.55112e-17
138 1 50.14 212.119 -5.55112e-17
139 1 202.155 105.236 -5.55112e-17
140 2 142.004 186.102 -5.55112e-17
141 1 205.785 96.1862 -5.55112e-17
142 2 211.888 48.7884 -5.55112e-17
143 1 111.239 80.6345 -5.55112e-17
144 2 43.4505 199.247 -5.55112e-17
145 1 172.317 102.817 -5.55112e-17
146 1 100.117 120.075 -5.55112e-17
147 1 154.359 145.787 -5.55112e-17
148 1 6.58021 200.525 -5.55112e-17
149 1 68.2466 21.5412 -5.55112e-17
150 1 54.1499 37.731 -5.55112e-17
151 1 26.0773 112.939 -5.55112e-17
152 1 63.2303 105.151 -5.55112e-17
153 2 52.2003 6.00815 -5.55112e-17
154 1 149.369 94.8881 -5.55112e-17
155 1 108.129 16.8369 -5.55112e-17
156 2 71.7897 116.306 -5.55112e-17
157 1 207.303 104.529 -5.55112e-17
158 1 29.1702 28.9879 -5.55112e-17
159 1 22.2503 135.729 -5.55112e-17
160 1 11.9381 201.426 -5.55112e-17
161 1 1.43218 7.82156 -5.55112e-17
162 1 127.468 127.185 -5.55112e-17
163 1 17.8551 32.8824 -5.55112e-17
164 1 167.2 53.003 -5.55112e-17
165 1 125.305 121.95 -5.55112e-17
166 2 159.817 60.2777 -5.55112e-17
167 1 175.299 46.3755 -5.55112e-17
168 1 149.277 169.673 -5.55112e-17
169 1 1.7991 101.703 -5.55112e-17
170 1 94.8728 168.474 -5.55112e-17
171 1 146.781 61.0446 -5.55112e-17
172 1 218.771 16.9533 -5.55112e-17
173 1 45.9934 143.439 -5.55112e-17
174 1 131.382 62.7751 -5.55112e-17
175 2 137.658 160.867 -5.55112e-17
176 1 109.793 70.8003 -5.55112e-17
177 2 70.2425 57.0899 -5.55112e-17
178 1 65.6082 87.1521 -5.55112e-17
179 1 173.105 163.792 -5.55112e-17
180 1 203.595 196.342 -5.55112e-17
181 1 134.914 167.36 -5.55112e-17
182 2 77.5166 20.8181 -5.55112e-17
183 1 76.7646 164.525 -5.55112e-17
184 1 176.074 86.5804 -5.55112e-17
185 2 175.286 20.4352 -5.55112e-17
186 2 208.622 133.826 -5.55112e-17
187 1 93.1165 29.0302 -5.55112e-17
188 1 102.486 170.168 -5.55112e-17
189 1 123.385 174.773 -5.55112e-17
190 2 13.9384 160.554 -5.55112e-17
191 1 77.4823 157.697 -5.55112e-17
192 2 63.3618 110.204 -5.55112e-17
193 2 79.548 173.048 -5.55112e-17
194 1 32.9287 149.375 -5.55112e-17
195 1 145.235 163.43 -5.55112e-17
196 1 168.715 191.312 -5.55112e-17
197 1 74.052 70.0982 -5.55112e-17
198 2 9.78057 132.905 -5.55112e-17
199 1 210.581 56.9729 -5.55112e-17
200 1 80.487 6.6857 -5.55112e-17
201 2 71.5583 110.139 -5.55112e-17
202 1 52.4006 210.635 -5.55112e-17
203 1 175.214 81.5198 -5.55112e-17
204 1 188.426 156.218 -5.55112e-17
205 2 191.777 82.4104 -5.55112e-17
206 1 89.1859 133.269 -5.55112e-17
207 1 106.118 30.175 -5.55112e-17
208 1 32.9936 86.3177 -5.55112e-17
209 1 81.9283 2.41936 -5.55112e-17
210 1 7.98778 64.5003 -5.55112e-17
211 2 146.25 156.365 -5.55112e-17
212 1 120.575 112.588 -5.55112e-17
213 1 134.948 104.28 -5.55112e-17
214 1 74.6597 14.1442 -5.55112e-17
215 1 74.1634 201.84 -5.55112e-17
216 1 193.247 138.818 -5.55112e-17
217 1 126.687 186.976 -5.55112e-17
218 2 28.3299 168.427 -5.55112e-17
219 1 155.752 213.75 -5.55112e-17
220 2 107.194 55.5725 -5.55112e-17
221 1 212.882 56.1377 -5.55112e-17
222 1 143.449 146.144 -5.55112e-17
223 1 52.2419 208.051 -5.55112e-17
224 2 10.0362 188.419 -5.55112e-17
225 1 201.179 142.174 -5.55112e-17
226 1 138.994 190.094 -5.55112e-17
227 2 51.0174 17.2746 -5.55112e-17
228 1 139.073 77.4824 -5.55112e-17
229 1 60.9099 135.817 -5.55112e-17
230 1 159.044 131.214 -5.55112e-17
231 1 148.507 122.811 -5.55112e-17
232 1 0.750047 90.9041 -5.55112e-17
233 1 109.957 100.639 -5.55112e-17
234 1 133.906 216.528 -5.55112e-17
235 1 20.9225 142.994 -5.55112e-17
236 1 46.2727 82.3612 -5.55112e-17
237 1 198.882 7.7531 -5.55112e-17
238 1 147.962 128.41 -5.55112e-17
239 2 17.5362 112.422 -5.55112e-17
240 1 99.6448 5.81035 -5.55112e-17
241 2 187.633 14.6554 -5.55112e-17
242 2 198.334 36.6267 -5.55112e-17
243 2 114.792 27.6897 -5.55112e-17
244 1 97.5396 7.67428 -5.55112e-17
245 1 84.4451 58.6016 -5.55112e-17
246 1 126.269 119.324 -5.55112e-17
247 1 210.662 98.4126 -5.55112e-17
248 1 94.8921 4.0523 -5.55112e-17
249 1 23.2491 65.7932 -5.55112e-17
250 2 149.934 29.9758 -5.55112e-17
251 1 153.804 212.028 -5.55112e-17
252 1 195.342 63.9084 -5.55112e-17
253 1 94.4191 61.5798 -5.55112e-17
254 2 76.5871 197.667 -5.55112e-17
255 1 212.244 148.636 -5.55112e-17
256 1 84.6102 166.041 -5.55112e-17
257 1 211.902 151.28 -5.55112e-17
258 2 164.132 27.7937 -5.55112e-17
259 1 57.9267 166.057 -5.55112e-17
260 1 127.943 11.4567 -5.55112e-17
261 1 185.085 13.603 -5.55112e-17
262 1 53.2617 52.6854 -5.55112e-17
263 1 12.7119 213.669 -5.55112e-17
264 1 172.502 42.8337 -5.55112e-17
265 1 166.516 22.6237 -5.55112e-17
266 1 155.782 9.8383 -5.55112e-17
267 1 2.62796 64.5644 -5.55112e-17
268 1 21.5818 35.5315 -5.55112e-17
269 1 125.928 95.0993 -5.55112e-17
270 1 141.331 106.337 -5.55112e-17
271 1 12.4534 92.7632 -5.55112e-17
272 1 159.389 202.194 -5.55112e-17
273 1 40.452 168.946 -5.55112e-17
274 2 113.039 87.9199 -5.55112e-17
275 1 64.0755 5.10529 -5.55112e-17
276 2 54.4941 32.3785 -5.55112e-17
277 2 166.877 121.992 -5.55112e-17
278 1 38.6368 101.255 -5.55112e-17
279 2 109.908 205.148 -5.55112e-17
280 1 60.0499 31.9595 -5.55112e-17
281 1 147.172 28.5344 -5.55112e-17
282 1 165.127 8.28961 -5.55112e-17
283 1 113.358 141.649 -5.55112e-17
284 1 136.708 165.46 -5.55112e-17
285 1 35.9451 12.8383 -5.55112e-17
286 2 34.2281 215.325 -5.55112e-17
287 1 82.5721 135.334 -5.55112e-17
288 1 21.5381 57.6384 -5.55112e-17
289 1 71.4684 54.0224 -5.55112e-17
290 1 150.948 193.106 -5.55112e-17
291 1 158.491 145.014 -5.55112e-17
292 2 20.0998 181.561 -5.55112e-17
293 2 65.6009 194.866 -5.55112e-17
294 1 112.15 40.296 -5.55112e-17
295 1 124.823 48.124 -5.55112e-17
296 1 134.923 41.9356 -5.55112e-17
297 1 118.776 145.311 -5.55112e-17
298 1 105.113 198.736 -5.55112e-17
299 1 160.339 106.43 -5.55112e-17
300 2 62.1433 94.991 -5.55112e-17
301 1 59.3615 46.1184 -5.55112e-17
302 1 127.029 193.137 -5.55112e-17
303 2 198.419 59.8619 -5.55112e-17
304 2 145.018 129.671 -5.55112e-17
305 1 85.8282 99.6943 -5.55112e-17
306 1 51.121 74.0531 -5.55112e-17
307 1 35.0779 122.835 -5.55112e-17
308 1 162.18 58.6817 -5.55112e-17
309 2 72.9529 184.71 -5.55112e-17
310 1 194.361 215.32 -5.55112e-17
311 1 80.1992 33.6744 -5.55112e-17
312 1 192.3 147.728 -5.55112e-17
313 2 147.517 66.1968 -5.55112e-17
314 1 52.1251 135.734 -5.55112e-17
315 1 111.126 150.639 -5.55112e-17
316 1 72.7195 0.786009 -5.55112e-17
317 1 13.7316 99.3997 -5.55112e-17
318 1 100.3 215.198 -5.55112e-17
319 1 51.5326 33.3878 -5.55112e-17
320 1 144.718 99.4189 -5.55112e-17
321 1 88.7297 203.82 -5.55112e-17
322 1 143.155 140.228 -5.55112e-17
323 1 188.179 107.854 -5.55112e-17
324 1 81.3026 26.8785 -5.55112e-17
325 1 162.811 139.41 -5.55112e-17
326 1 84.9048 151.963 -5.55112e-17
327 2 149.88 186.136 -5.55112e-17
328 1 167.473 40.219 -5.55112e-17
329 2 47.3783 115.98 -5.55112e-17
330 1 24.2485 102.225 -5.55112e-17
331 1 174.823 175.759 -5.55112e-17
332 2 112.687 104.526 -5.55112e-17
333 1 44.4866 18.0368 -5.55112e-17
334 1 139.569 168.996 -5.55112e-17
335 1 12.2323 206.233 -5.55112e-17
336 1 212.699 106.407 -5.55112e-17
337 1 102.994 182.473 -5.55112e-17
338 1 159.515 57.5559 -5.55112e-17
339 1 109.378 217.112 -5.55112e-17
340 1 153.459 141.464 -5.55112e-17
341 1 159.99 158.401 -5.55112e-17
342 1 128.929 144.835 -5.55112e-17
343 1 127.262 29.2551 -5.55112e-17
344 1 63.5421 182.082 -5.55112e-17
345 1 60.4171 109.633 -5.55112e-17
346 1 9.2201 127.544 -5.55112e-17
347 1 92.125 92.4703 -5.55112e-17
348 1 164.13 179.328 -5.55112e-17
349 1 193.134 75.0926 -5.55112e-17
350 2 89.9926 40.5622 -5.55112e-17
351 1 155.07 65.8179 -5.55112e-17
352 1 60.997 182.88 -5.55112e-17
353 1 38.8897 166.503 -5.55112e-17
354 1 167.677 161.411 -5.55112e-17
355 1 58.6287 157.116 -5.55112e-17
356 1 23.8534 36.2975 -5.55112e-17
357 1 62.7367 159.058 -5.55112e-17
358 1 172.061 180.45 -5.55112e-17
359 1 157.59 159.249 -5.55112e-17
360 1 74.0986 53.4629 -5.55112e-17
361 1 63.2789 168.297 -5.55112e-17
362 1 169.258 200.847 -5.55112e-17
363 1 163.712 190.165 -5.55112e-17
364 2 116.622 92.6757 -5.55112e-17
365 1 178.836 90.518 -5.55112e-17
366 1 117.559 161.182 -5.55112e-17
367 1 174.337 6.97526 -5.55112e-17
368 1 196.969 191.857 -5.55112e-17
369 2 115.532 188.044 -5.55112e-17
370 1 14.9738 206.036 -5.55112e-17
371 1 53.7793 137.536 -5.55112e-17
372 2 0.112071 93.8233 -5.55112e-17
373 2 212.698 7.77244 -5.55112e-17
374 1 151.252 88.2919 -5.55112e-17
375 1 37.3658 112.402 -5.55112e-17
376 1 16.9685 151.597 -5.55112e-17
377 1 28.6884 213.413 -5.55112e-17
378 1 74.5942 129.649 -5.55112e-17
379 1 42.9138 60.8197 -5.55112e-17
380 1 177.786 150.902 -5.55112e-17
381 1 13.5518 5.36887 -5.55112e-17
382 1 54.2113 67.4772 -5.55112e-17
383 1 169.852 67.2589 -5.55112e-17
384 1 21.8532 13.9456 -5.55112e-17
385 1 191.43 76.987 -5.55112e-17
386 2 82.0158 44.1893 -5.55112e-17
387 1 144.466 19.03 -5.55112e-17
388 1 56.8177 44.1143 -5.55112e-17
389 1 206.802 158.763 -5.55112e-17
390 2 207.364 179.275 -5.55112e-17
391 2 35.7556 40.8534 -5.55112e-17
392 1 41.4412 218.144 -5.55112e-17
393 1 0.507193 33.4602 -5.55112e-17
394 1 102.518 101.527 -5.55112e-17
395 1 16.155 27.6064 -5.55112e-17
396 1 202.608 153.442 -5.55112e-17
397 1 101.139 16.2581 -5.55112e-17
398 1 11.62 191.176 -5.55112e-17
399 1 19.5385 59.6484 -5.55112e-17
400 1 103.109 180.04 -5.55112e-17
401 1 87.6436 176.835 -5.55112e-17
402 2 191.24 178.533 -5.55112e-17
403 1 213.934 53.8535 -5.55112e-17
404 1 36.2221 71.7518 -5.55112e-17
405 1 204.736 28.8871 -5.55112e-17
406 1 200.943 68.2198 -5.55112e-17
407 2 19.2432 62.7539 -5.55112e-17
408 1 34.0527 35.863 -5.55112e-17
409 1 169.106 129.084 -5.55112e-17
410 1 19.7438 154.943 -5.55112e-17
411 1 152.02 160.618 -5.55112e-17
412 1 114.901 215.22 -5.55112e-17
413 1 63.5779 156.534 -5.55112e-17
414 1 38.3707 13.9092 -5.55112e-17
415 1 207.863 147.791 -5.55112e-17
416 1 71.6545 200.36 -5.55112e-17
417 1 141.347 93.9712 -5.55112e-17
418 2 184.494 7.41168 -5.55112e-17
419 1 108.621 150.02 -5.55112e-17
420 2 136.787 109.1 -5.55112e-17
421 1 87.8502 104.341 -5.55112e-17
422 1 176.146 23.4839 -5.55112e-17
423 2 158.072 40.9363 -5.55112e-17
424 1 157.216 149.253 -5.55112e-17
425 1 129.326 167.02 -5.55112e-17
426 1 133.252 112.767 -5.55112e-17
427 1 45.4728 84.7518 -5.55112e-17
428 1 71.1337 192.274 -5.55112e-17
429 1 194.564 83.1992 -5.55112e-17
430 1 215.06 59.9163 -5.55112e-17
431 1 120.452 206.535 -5.55112e-17
432 1 161.658 53.6789 -5.55112e-17
433 1 104.915 154.215 -5.55112e-17
434 1 71.7283 30.3508 -5.55112e-17
435 1 178.082 161.602 -5.55112e-17
436 1 44.6865 36.514 -5.55112e-17
437 1 175.478 109.2 -5.55112e-17
438 2 109.938 21.775 -5.55112e-17
439 1 67.232 209.221 -5.55112e-17
440 1 3.80459 161.788 -5.55112e-17
441 1 192.53 131.454 -5.55112e-17
442 1 50.6269 13.8096 -5.55112e-17
443 1 158.134 104.7 -5.55112e-17
444 1 218.257 101.137 -5.55112e-17
445 1 140.011 7.43133 -5.55112e-17
446 1 131.961 78.9395 -5.55112e-17
447 1 39.0491 145.13 -5.55112e-17
448 1 75.7118 7.27201 -5.55112e-17
449 1 131.766 120.521 -5.55112e-17
450 1 139.766 187.785 -5.55112e-17
451 1 170.689 47.0984 -5.55112e-17
452 1 131.322 145.272 -5.55112e-17
453 1 179.045 181.95 -5.55112e-17
454 1 160.384 211.615 -5.55112e-17
455 1 100.091 71.8728 -5.55112e-17
456 1 167.264 27.0549 -5.55112e-17
457 1 97.878 113.289 -5.55112e-17
458 1 198.399 218.952 -5.55112e-17
459 1 81.1775 69.0722 -5.55112e-17
460 1 48.3999 102.744 -5.55112e-17
461 1 188.44 177.839 -5.55112e-17
462 1 181.773 116.047 -5.55112e-17
463 1 126.463 33.7231 -5.55112e-17
464 1 155.01 194.644 -5.55112e-17
465 1 121.576 159.868 -5.55112e-17
466 1 24.4101 214.165 -5.55112e-17
467 1 17.4156 80.0433 -5.55112e-17
468 1 161.568 218.782 -5.55112e-17
469 1 68.4076 77.8886 -5.55112e-17
470 1 78.0558 38.005 -5.55112e-17
471 1 128.759 174.58 -5.55112e-17
472 1 48.3197 83.5984 -5.55112e-17
473 1 26.6522 103.047 -5.55112e-17
474 1 88.0894 101.372 -5.55112e-17
475 1 185.037 163.443 -5.55112e-17
476 2 192.141 11.861 -5.55112e-17
477 1 53.9723 84.902 -5.55112e-17
478 1 58.6727 126.243 -5.55112e-17
479 1 201.731 80.3054 -5.55112e-17
480 1 85.3948 23.6158 -5.55112e-17
481 1 15.0112 94.2749 -5.55112e-17
482 1 99.406 160.061 -5.55112e-17
483 1 141.96 159.924 -5.55112e-17
484 2 87.6579 45.7298 -5.55112e-17
485 1 33.723 100.67 -5.55112e-17
486 1 81.8263 17.3724 -5.55112e-17
487 1 100.794 196.916 -5.55112e-17
488 1 5.92888 121.128 -5.55112e-17
489 1 211.555 134.687 -5.55112e-17
490 1 205.477 83.8352 -5.55112e-17
491 1 197.439 121.197 -5.55112e-17
492 1 2.63259 128.679 -5.55112e-17
493 1 194.345 210.193 -5.55112e-17
494 1 211.155 38.0672 -5.55112e-17
495 1 198.62 89.2279 -5.55112e-17
496 2 44.0557 189.503 -5.55112e-17
497 1 39.2626 217.049 -5.55112e-17
498 1 104.89 121.344 -5.55112e-17
499 2 136.811 216.626 -5.55112e-17
500 1 26.3033 30.1944 -5.55112e-17
501 2 112.642 216.909 -5.55112e-17
502 2 123.617 143.324 -5.55112e-17
503 1 147.404 183.719 -5.55112e-17
504 1 112.925 148.601 -5.55112e-17
505 1 118.359 18.6143 -5.55112e-17
506 1 26.0344 121.755 -5.55112e-17
507 1 14.6139 129.593 -5.55112e-17
508 1 196.47 216.867 -5.55112e-17
509 2 27.0935 75.3804 -5.55112e-17
510 2 146.384 133.486 -5.55112e-17
511 1 195.822 35.0555 -5.55112e-17
512 2 210.106 60.0312 -5.55112e-17
513 1 56.3977 127.811 -5.55112e-17
514 1 48.9719 19.1513 -5.55112e-17
515 1 204.12 24.9669 -5.55112e-17
516 1 182.613 205.761 -5.55112e-17
517 1 112.307 117.469 -5.55112e-17
518 2 103.784 20.1347 -5.55112e-17
519 1 11.5068 52.8791 -5.55112e-17
520 2 212.366 22.8311 -5.55112e-17
521 1 88.8186 111.19 -5.55112e-17
522 1 31.4813 30.6013 -5.55112e-17
523 1 24.5477 68.0649 -5.55112e-17
524 1 99.743 74.4263 -5.55112e-17
525 1 174.889 121.081 -5.55112e-17
526 1 191.032 64.4821 -5.55112e-17
527 1 75.6338 4.68042 -5.55112e-17
528 1 168.772 29.4617 -5.55112e-17
529 1 57.0198 159.112 -5.55112e-17
530 1 100.571 31.7201 -5.55112e-17
531 1 66.1093 197.695 -5.55112e-17
532 1 206.977 187.234 -5.55112e-17
533 1 133.945 151.128 -5.55112e-17
534 1 97.3773 144.891 -5.55112e-17
535 1 14.3745 105.147 -5.55112e-17
536 1 203.615 117.302 -5.55112e-17
537 1 201.178 166.467 -5.55112e-17
538 1 168.665 80.5009 -5.55112e-17
539 1 89.1697 211.702 -5.55112e-17
540 1 103.519 88.9152 -5.55112e-17
541 1 40.7282 59.3095 -5.55112e-17
542 1 67.186 211.769 -5.55112e-17
543 1 147.33 152.08 -5.55112e-17
544 1 128.93 200.575 -5.55112e-17
545 1 8.03027 149.187 -5.55112e-17
546 1 179.378 40.9747 -5.55112e-17
547 1 82.1931 172.474 -5.55112e-17
548 1 99.9893 8.40186 -5.55112e-17
549 1 51.5915 76.5043 -5.55112e-17
550 2 162.704 121.589 -5.55112e-17
551 2 134.656 158.145 -5.55112e-17
552 2 93.7106 180.693 -5.55112e-17
553 1 122.386 42.7069 -5.55112e-17
554 1 73.3261 101.897 -5.55112e-17
555 2 66.0595 124.134 -5.55112e-17
556 1 148.81 21.7175 -5.55112e-17
557 1 76.6109 12.3425 -5.55112e-17
558 1 148.246 125.635 -5.55112e-17
559 1 187.722 47.0227 -5.55112e-17
560 1 131.28 51.3368 -5.55112e-17
561 1 146.747 168.771 -5.55112e-17
562 1 195.704 144.324 -5.55112e-17
563 2 168.085 113.666 -5.55112e-17
564 1 41.9048 67.527 -5.55112e-17
565 1 60.4415 10.7436 -5.55112e-17
566 1 75.543 34.2471 -5.55112e-17
567 1 150.411 110.978 -5.55112e-17
568 1 22.148 114.835 -5.55112e-17
569 1 114.331 185.406 -5.55112e-17
570 1 124.701 124.334 -5.55112e-17
571 1 175.476 203.285 -5.55112e-17
572 1 61.4061 112.282 -5.55112e-17
573 1 177.077 76.2256 -5.55112e-17
574 1 41.7641 130.469 -5.55112e-17
575 1 21.9344 76.558 -5.55112e-17
576 1 196.05 98.2862 -5.55112e-17
577 1 202.887 32.9059 -5.55112e-17
578 1 122.865 197.102 -5.55112e-17
579 1 16.4602 165.49 -5.55112e-17
580 1 102.884 139.402 -5.55112e-17
581 1 141.19 154.327 -5.55112e-17
582 1 75.9174 79.0338 -5.55112e-17
583 1 162.592 185.874 -5.55112e-17
584 2 28.948 117.773 -5.55112e-17
585 1 48.5606 198.82 -5.55112e-17
586 1 137.552 171.022 -5.55112e-17
587 1 99.4445 104.894 -5.55112e-17
588 1 17.2078 1.83264 -5.55112e-17
589 1 103.56 17.2204 -5.55112e-17
590 1 70.1685 0.113296 -5.55112e-17
591 1 215.938 162.449 -5.55112e-17
592 1 56.102 156.536 -5.55112e-17
593 1 209.509 181.089 -5.55112e-17
594 1 181.449 180.856 -5.55112e-17
595 1 82.989 39.5808 -5.55112e-17
596 1 66.0484 35.8757 -5.55112e-17
597 2 180.605 203.896 -5.55112e-17
598 1 167.515 211.484 -5.55112e-17
599 1 208.019 170.908 -5.55112e-17
600 1 104.929 10.6441 -5.55112e-17
601 1 11.7956 134.973 -5.55112e-17
602 1 98.1405 31.1029 -5.55112e-17
603 1 208.084 202.101 -5.55112e-17
604 1 120.808 1.05946 -5.55112e-17
605 2 85.2909 77.688 -5.55112e-17
606 1 102.733 202.276 -5.55112e-17
607 2 171.87 146.792 -5.55112e-17
608 1 95.1201 76.7657 -5.55112e-17
609 1 15.7878 6.49529 -5.55112e-17
610 1 214.324 150.276 -5.55112e-17
611 1 201.896 189.779 -5.55112e-17
612 1 217.93 37.9006 -5.55112e-17
613 1 59.0097 151.289 -5.55112e-17
614 2 128.036 179.663 -5.55112e-17
615 1 105.993 18.3108 -5.55112e-17
616 1 201.942 130.427 -5.55112e-17
617 1 127.225 198.598 -5.55112e-17
618 1 201.737 211.745 -5.55112e-17
619 1 178.695 78.0931 -5.55112e-17
620 1 141.394 141.8 -5.55112e-17
621 1 197.208 93.8719 -5.55112e-17
622 1 95.3569 213.833 -5.55112e-17
623 1 218.537 11.5803 -5.55112e-17
624 1 24.0104 209.509 -5.55112e-17
625 1 204.919 154.698 -5.55112e-17
626 1 93.9704 191.416 -5.55112e-17
627 1 64.0243 74.1962 -5.55112e-17
628 1 34.3021 28.7731 -5.55112e-17
629 1 10.2208 94.5352 -5.55112e-17
630 2 151.552 22.1495 -5.55112e-17
631 1 15.4459 86.3185 -5.55112e-17
632 1 49.4007 92.691 -5.55112e-17
633 1 38.5399 211.544 -5.55112e-17
634 1 1.14326 147.22 -5.55112e-17
635 1 154.91 150.948 -5.55112e-17
636 1 208.112 57.8522 -5.55112e-17
637 1 201.263 58.151 -5.55112e-17
638 1 172.711 76.4616 -5.55112e-17
639 2 203.69 78.3559 -5.55112e-17
640 1 143.162 152.555 -5.55112e-17
641 1 192.786 85.0452 -5.55112e-17
642 1 31.9698 91.2649 -5.55112e-17
643 2 182.196 42.2683 -5.55112e-17
644 1 68.5517 155.51 -5.55112e-17
645 1 106.707 196.715 -5.55112e-17
646 2 212.019 141.005 -5.55112e-17
647 1 11.2846 185.398 -5.55112e-17
648 1 132.911 102.953 -5.55112e-17
649 2 23.8313 150.895 -5.55112e-17
650 1 204.528 186.133 -5.55112e-17
651 1 218.536 113.39 -5.55112e-17
652 1 153.433 43.993 -5.55112e-17
653 1 114.243 175.825 -5.55112e-17
654 1 22.9103 21.6973 -5.55112e-17
655 2 183.785 100.803 -5.55112e-17
656 1 30.2821 125.437 -5.55112e-17
657 2 79.3648 207.237 -5.55112e-17
658 1 54.2834 44.5458 -5.55112e-17
659 2 156.517 192.454 -5.55112e-17
660 1 102.369 55.5473 -5.55112e-17
661 1 42.8238 116.696 -5.55112e-17
662 1 81.6326 130.543 -5.55112e-17
663 1 32.0565 25.7329 -5.55112e-17
664 1 146.643 17.8221 -5.55112e-17
665 1 140.069 75.2398 -5.55112e-17
666 2 47.9011 180.671 -5.55112e-17
667 1 93.0338 99.6592 -5.55112e-17
668 2 102.256 93.6029 -5.55112e-17
669 1 36.2228 18.1538 -5.55112e-17
670 1 96.4123 173.642 -5.55112e-17
671 2 53.6069 176.249 -5.55112e-17
672 1 186.939 11.7376 -5.55112e-17
673 1 63.4075 19.6429 -5.55112e-17
674 1 2.14703 31.7776 -5.55112e-17
675 1 128.404 24.0224 -5.55112e-17
676 1 169.398 123.923 -5.55112e-17
677 1 131.403 174.986 -5.55112e-17
678 1 137.687 30.6358 -5.55112e-17
679 2 152.351 33.0379 -5.55112e-17
680 1 202.985 41.1843 -5.55112e-17
681 2 129.289 119.071 -5.55112e-17
682 1 0.104987 47.7172 -5.55112e-17
683 1 68.6785 4.28188 -5.55112e-17
684 1 120.075 154.695 -5.55112e-17
685 1 152.97 38.5946 -5.55112e-17
686 1 27.7715 193.638 -5.55112e-17
687 1 118.331 192.04 -5.55112e-17
688 1 162.965 110.296 -5.55112e-17
689 2 56.3445 46.9707 -5.55112e-17
690 1 70.3649 19.9984 -5.55112e-17
691 1 89.2408 66.3091 -5.55112e-17
692 1 131.518 8.30793 -5.55112e-17
693 1 48.2596 143.532 -5.55112e-17
694 1 76.1424 125.342 -5.55112e-17
695 1 146.032 38.7035 -5.55112e-17
696 1 146.587 81.1554 -5.55112e-17
697 1 139.91 201.352 -5.55112e-17
698 1 116.649 66.2409 -5.55112e-17
699 1 180.578 191.493 -5.55112e-17
700 1 205.938 208.825 -5.55112e-17
701 1 53.8959 17.0723 -5.55112e-17
702 1 113.58 128.849 -5.55112e-17
703 2 188.197 143.778 -5.55112e-17
704 1 29.3103 218.858 -5.55112e-17
705 2 68.7493 112.304 -5.55112e-17
706 1 165.615 177.272 -5.55112e-17
707 1 114.174 24.816 -5.55112e-17
708 1 84.3356 209.232 -5.55112e-17
709 1 147.28 196.03 -5.55112e-17
710 1 191.934 191.135 -5.55112e-17
711 1 111.597 93.1876 -5.55112e-17
712 1 192.708 207.857 -5.55112e-17
713 1 14.0495 136.194 -5.55112e-17
714 1 136.307 13.3731 -5.55112e-17
715 1 55.8904 199.52 -5.55112e-17
716 1 40.367 123.966 -5.55112e-17
717 1 51.3787 107.623 -5.55112e-17
718 1 131.191 185.166 -5.55112e-17
719 2 119.708 78.9972 -5.55112e-17
720 1 98.7224 65.0028 -5.55112e-17
721 1 95.5457 98.794 -5.55112e-17
722 1 133.913 62.931 -5.55112e-17
723 2 48.8182 45.9809 -5.55112e-17
724 1 15.2071 49.6544 -5.55112e-17
725 1 29.3894 109.217 -5.55112e-17
726 1 189.949 45.6606 -5.55112e-17
727 1 148.726 205.137 -5.55112e-17
728 2 18.0247 88.0918 -5.55112e-17
729 1 133.845 165.121 -5.55112e-17
730 1 174.354 199.15 -5.55112e-17
731 1 48.8557 189.979 -5.55112e-17
732 1 218.438 9.1448 -5.55112e-17
733 1 205.263 33.8485 -5.55112e-17
734 1 3.97205 29.9363 -5.55112e-17
735 1 41.3307 22.9256 -5.55112e-17
736 2 190.205 74.2861 -5.55112e-17
737 1 81.5336 86.7271 -5.55112e-17
738 1 19.2621 165.956 -5.55112e-17
739 1 105.774 156.535 -5.55112e-17
740 1 60.2756 116.709 -5.55112e-17
741 2 188.97 78.1542 -5.55112e-17
742 1 74.4919 43.6831 -5.55112e-17
743 1 202.91 66.5498 -5.55112e-17
744 2 210.855 172.427 -5.55112e-17
745 1 130.872 31.9942 -5.55112e-17
746 1 14.143 29.3934 -5.55112e-17
747 2 204.272 22.0893 -5.55112e-17
748 1 182.814 192.747 -5.55112e-17
749 1 196.859 210.629 -5.55112e-17
750 1 213.548 163.616 -5.55112e-17
751 1 59.6065 58.7754 -5.55112e-17
752 1 178.022 105.65 -5.55112e-17
753 1 99.25 150.976 -5.55112e-17
754 1 14.8345 215.282 -5.55112e-17
755 1 83.3821 195.236 -5.55112e-17
756 2 103.707 196.019 -5.55112e-17
757 1 27.3 18.5856 -5.55112e-17
758 1 135.54 146.302 -5.55112e-17
759 1 72.9296 107.598 -5.55112e-17
760 1 95.2248 39.8992 -5.55112e-17
761 1 58.1146 161.569 -5.55112e-17
762 1 43.8629 23.6026 -5.55112e-17
763 1 114.268 99.6733 -5.55112e-17
764 2 177.677 148.086 -5.55112e-17
765 1 91.8007 62.5074 -5.55112e-17
766 1 114.683 35.6206 -5.55112e-17
767 1 96.9431 78.4386 -5.55112e-17
768 1 9.64633 3.68127 -5.55112e-17
769 1 107.929 75.6984 -5.55112e-17
770 2 113.565 109.969 -5.55112e-17
771 1 143.84 178.753 -5.55112e-17
772 1 102.264 28.1432 -5.55112e-17
773 1 109.27 167.44 -5.55112e-17
774 1 111.44 124.138 -5.55112e-17
775 1 68.9869 7.04243 -5.55112e-17
776 1 38.0718 11.2976 -5.55112e-17
777 1 107.987 182.109 -5.55112e-17
778 1 22.5634 19.225 -5.55112e-17
779 1 191.946 44.0691 -5.55112e-17
780 1 3.86416 169.275 -5.55112e-17
781 1 127.162 100.038 -5.55112e-17
782 1 175.765 49.0949 -5.55112e-17
783 1 98.5565 15.5713 -5.55112e-17
784 2 194.996 159.107 -5.55112e-17
785 1 110.812 165.486 -5.55112e-17
786 1 119.183 177.242 -5.55112e-17
787 1 185.282 74.7764 -5.55112e-17
788 1 177.379 44.9583 -5.55112e-17
789 2 142.975 108.9 -5.55112e-17
790 1 109.902 28.2249 -5.55112e-17
791 2 14.4071 121.71 -5.55112e-17
792 2 215.786 13.4424 -5.55112e-17
793 2 115.787 68.9766 -5.55112e-17
794 1 56.1578 188.702 -5.55112e-17
795 1 132.275 53.6681 -5.55112e-17
796 1 130.465 22.5547 -5.55112e-17
797 1 197.867 155.222 -5.55112e-17
798 2 196.189 203.621 -5.55112e-17
799 2 207.738 65.4002 -5.55112e-17
800 2 55.2648 217.514 -5.55112e-17
801 1 102.825 132.425 -5.55112e-17
802 1 124.515 76.1767 -5.55112e-17
803 1 181.744 68.2692 -5.55112e-17
804 2 122.851 205.092 -5.55112e-17
805 1 44.6321 106.787 -5.55112e-17
806 1 11.9048 117.005 -5.55112e-17
807 2 100.652 99.2324 -5.55112e-17
808 1 14.4964 116.592 -5.55112e-17
809 2 57.8251 134.424 -5.55112e-17
810 1 129.843 198.023 -5.55112e-17
811 1 32.6773 6.1391 -5.55112e-17
812 1 131.801 34.4769 -5.55112e-17
813 2 108.102 111.09 -5.55112e-17
814 1 147.392 69.2693 -5.55112e-17
815 1 88.9466 164.356 -5.55112e-17
816 1 200.71 9.60575 -5.55112e-17
817 1 108.075 214.812 -5.55112e-17
818 1 57.5311 101.773 -5.55112e-17
819 1 9.52623 135.966 -5.55112e-17
820 1 45.4768 120.589 -5.55112e-17
821 1 94.3772 151.866 -5.55112e-17
822 2 41.6627 135.815 -5.55112e-17
823 2 139.216 91.6747 -5.55112e-17
824 1 34.7136 108.206 -5.55112e-17
825 1 65.2375 15.5389 -5.55112e-17
826 1 190.301 14.0124 -5.55112e-17
827 1 192.929 107.399 -5.55112e-17
828 1 142.509 123.56 -5.55112e-17
829 1 127.564 210.964 -5.55112e-17
830 1 81.481 127.991 -5.55112e-17
831 1 217.243 42.5104 -5.55112e-17
832 1 93.1914 87.259 -5.55112e-17
833 1 61.8296 84.864 -5.55112e-17
834 1 107.118 9.21885 -5.55112e-17
835 1 58.1209 218.486 -5.55112e-17
836 1 10.6557 50.4245 -5.55112e-17
837 1 6.93993 70.6701 -5.55112e-17
838 1 98.1249 178.526 -5.55112e-17
839 2 197.831 2.95582 -5.55112e-17
840 1 4.89093 202.355 -5.55112e-17
841 2 62.9949 184.908 -5.55112e-17
842 1 94.6635 91.6507 -5.55112e-17
843 2 159.76 182.9 -5.55112e-17
844 1 26.785 158.775 -5.55112e-17
845 1 70.9173 189.49 -5.55112e-17
846 1 159.176 190.686 -5.55112e-17
847 1 41.9267 141.144 -5.55112e-17
848 1 188.409 117.381 -5.55112e-17
849 1 189.634 166.727 -5.55112e-17
850 1 39.5201 129.553 -5.55112e-17
851 1 89.5325 37.429 -5.55112e-17
852 1 11.595 209.007 -5.55112e-17
853 1 31.969 138.763 -5.55112e-17
854 1 171.091 84.4673 -5.55112e-17
855 1 126.134 20.1761 -5.55112e-17
856 1 210.173 169.527 -5.55112e-17