ITEM: TIMESTEP
0
ITEM: NUMBER OF ATOMS
7200
ITEM: BOX BOUNDS xy xz yz pp pp pp
0.0000000000000000e+00 2.1900000000000000e+02 0.0000000000000000e+00
0.0000000000000000e+00 2.1900000000000000e+02 0.0000000000000000e+00
-3.6499999999999999e-01 3.6499999999999999e-01 0.0000000000000000e+00
ITEM: ATOMS id type x y z
1 1 88.2882 197.994 -5.55112e-17
2 1 141.731 69.7205 -5.55112e-17
3 1 21.5291 195.515 -5.55112e-17
4 1 41.2596 105.741 -5.55112e-17
5 1 81.1351 126.139 -5.55112e-17
6 1 134.896 187.495 -5.55112e-17
7 1 210.373 64.5864 -5.55112e-17
8 2 167.118 119.624 -5.55112e-17
9 1 168.366 208.82 -5.55112e-17
10 2 57.1758 175.107 -5.55112e-17
11 1 162.325 38.1468 -5.55112e-17
12 1 147.009 68.595 -5.55112e-17
13 2 45.3345 82.4885 -5.55112e-17
14 1 80.0341 55.652 -5.55112e-17
15 1 152.185 122.778 -5.55112e-17
16 2 86.5886 203.384 -5.55112e-17
17 1 159.742 218.201 -5.55112e-17
18 2 35.1267 46.0699 -5.55112e-17
19 1 65.4466 93.4693 -5.55112e-17
20 1 199.892 116.779 -5.55112e-17
21 1 102.916 196.836 -5.55112e-17
22 2 29.3141 154.904 -5.55112e-17
23 2 45.5293 52.7652 -5.55112e-17
24 1 172.11 128.239 -5.55112e-17
25 1 44.136 186.045 -5.55112e-17
26 2 106.655 79.4585 -5.55112e-17
27 1 178.304 212.77 -5.55112e-17
28 2 51.9693 183.78 -5.55112e-17
29 1 27.4483 89.1893 -5.55112e-17
30 1 170.063 80.0707 -5.55112e-17
31 1 208.238 43.8698 -5.55112e-17
32 1 79.3782 180.721 -5.55112e-17
33 1 170.668 184.21 -5.55112e-17
34 1 67.1199 44.2245 -5.55112e-17
35 1 188.608 40.1839 -5.55112e-17
36 1 4.28718 123.848 -5.55112e-17
37 2 139.1 118.188 -5.55112e-17
38 1 146.012 100.561 -5.55112e-17
39 1 119.703 129.92 -5.55112e-17
40 1 158.211 189.076 -5.55112e-17
41 1 102.781 30.2564 -5.55112e-17
42 1 84.7854 63.1778 -5.55112e-17
43 1 190.349 55.3093 -5.55112e-17
44 1 118.965 87.4423 -5.55112e-17
45 1 7.37275 60.0939 -5.55112e-17
46 1 107.929 185.01 -5.55112e-17
47 1 3.22315 173.714 -5.55112e-17
48 2 55.493 66.7473 -5.55112e-17
49 1 11.8512 90.2863 -5.55112e-17
50 1 60.1806 153.846 -5.55112e-17
51 1 105.852 16.4112 -5.55112e-17
52 1 158.705 88.1892 -5.55112e-17
53 1 116.104 210.806 -5.55112e-17
54 1 196.428 126.704 -5.55112e-17
55 1 216.602 200.571 -5.55112e-17
56 1 106.002 134.669 -5.55112e-17
57 2 114.781 188.127 -5.55112e-17
58 1 3.16474 208.028 -5.55112e-17
59 1 182.15 93.7169 -5.55112e-17
60 2 173.675 106.786 -5.55112e-17
61 2 37.5627 180.216 -5.55112e-17
62 1 18.1295 109.482 -5.55112e-17
63 1 90.9413 212.323 -5.55112e-17
64 1 145.236 30.4173 -5.55112e-17
65 1 155.84 136.23 -5.55112e-17
66 1 124.342 107.144 -5.55112e-17
67 1 129.49 102.003 -5.55112e-17
68 1 54.5266 218.394 -5.55112e-17
69 1 104.047 178.316 -5.55112e-17
70 1 31.6823 98.4335 -5.55112e-17
71 1 153.433 164.8 -5.55112e-17
72 1 134.889 53.6851 -5.55112e-17
73 1 157.075 153.18 -5.55112e-17
74 1 168.178 14.4486 -5.55112e-17
75 2 116.948 205.254 -5.55112e-17
76 1 1.06057 46.5332 -5.55112e-17
77 1 208.234 206.793 -5.55112e-17
78 1 84.4237 181.965 -5.55112e-17
79 2 101.868 39.3372 -5.55112e-17
80 1 72.0323 160.208 -5.55112e-17
81 1 141.193 122.887 -5.55112e-17
82 1 81.6317 160.866 -5.55112e-17
83 2 114.481 159.32 -5.55112e-17
84 1 202.131 22.3235 -5.55112e-17
85 1 62.9513 105.252 -5.55112e-17
86 1 112.76 110.95 -5.55112e-17
87 1 69.6781 47.4598 -5.55112e-17
88 1 4.38161 9.99423 -5.55112e-17
89 2 51.9163 10.3403 -5.55112e-17
90 2 212.915 174.426 -5.55112e-17
91 1 204.063 71.5178 -5.55112e-17
92 2 158.089 201.825 -5.55112e-17
93 1 136.529 17.2847 -5.55112e-17
94 2 152.19 22.479 -5.55112e-17
95 1 36.101 218.916 -5.55112e-17
96 1 208.413 88.4517 -5.55112e-17
97 1 200.775 20.2354 -5.55112e-17
98 1 101.823 60.9939 -5.55112e-17
99 1 165.093 74.5491 -5.55112e-17
100 1 142.108 178.161 -5.55112e-17
101 1 110.1 56.5219 -5.55112e-17
102 1 3.82498 96.2225 -5.55112e-17
103 1 64.4478 21.3698 -5.55112e-17
104 1 215.299 118.743 -5.55112e-17
105 1 107.536 41.7875 -5.55112e-17
106 1 110.858 106.725 -5.55112e-17
107 2 136.689 74.5741 -5.55112e-17
108 1 78.4366 187.907 -5.55112e-17
109 1 16.3217 114.496 -5.55112e-17
110 1 38.0495 78.3969 -5.55112e-17
111 1 60.4841 13.03 -5.55112e-17
112 1 51.3372 175.91 -5.55112e-17
113 1 138.686 115.41 -5.55112e-17
114 1 141.048 8.00747 -5.55112e-17
115 1 82.8419 171.675 -5.55112e-17
116 2 13.6416 148.138 -5.55112e-17
117 1 182.697 196.297 -5.55112e-17
118 1 162.873 18.5179 -5.55112e-17
119 2 12.4838 107.6 -5.55112e-17
120 1 12.5254 201.163 -5.55112e-17
121 1 182.28 64.3805 -5.55112e-17
122 1 108.14 2.38408 -5.55112e-17
123 1 134.037 104.603 -5.55112e-17
124 1 188.07 185.785 -5.55112e-17
125 1 138.796 72.7892 -5.55112e-17
126 1 37.3949 57.1622 -5.55112e-17
127 1 191.661 68.6976 -5.55112e-17
128 1 157.029 178.145 -5.55112e-17
129 1 12.0128 145.74 -5.55112e-17
130 1 53.5162 158.278 -5.55112e-17
131 1 178.716 152.373 -5.55112e-17
132 2 211.148 213.751 -5.55112e-17
133 1 106.089 64.0847 -5.55112e-17
134 1 21.3236 25.8152 -5.55112e-17
135 1 90.5201 7.45281 -5.55112e-17
136 1 191.19 160.72 -5.55112e-17
137 1 72.1873 195.25 -5.55112e-17
138 1 59.6591 20.7121 -5.55112e-17
139 1 186.579 111.381 -5.55112e-17
140 2 123.048 205.143 -5.55112e-17
141 1 205.231 65.3011 -5.55112e-17
142 2 195.817 12.8071 -5.55112e-17
143 1 58.3968 130.561 -5.55112e-17
144 2 27.0057 206.199 -5.55112e-17
145 1 143.422 71.4434 -5.55112e-17
146 1 153.688 63.4143 -5.55112e-17
147 1 146.128 158.23 -5.55112e-17
148 1 42.4316 196.524 -5.55112e-17
149 1 71.2592 40.7158 -5.55112e-17
150 1 193.099 217.877 -5.55112e-17
151 1 15.5885 174.434 -5.55112e-17
152 1 33.8316 81.5157 -5.55112e-17
153 2 8.54582 207.974 -5.55112e-17
154 1 155.033 112.793 -5.55112e-17
155 1 152.408 173.083 -5.55112e-17
156 2 26.0819 176.943 -5.55112e-17
157 1 201.418 78.465 -5.55112e-17
158 1 40.9152 11.7153 -5.55112e-17
159 1 1.70795 155.555 -5.55112e-17
160 1 20.0253 1.62989 -5.55112e-17
161 1 65.7415 13.75 -5.55112e-17
162 1 45.7376 123.03 -5.55112e-17
163 1 78.9267 28.3011 -5.55112e-17
164 1 165.877 105.777 -5.55112e-17
165 1 171.809 1.68657 -5.55112e-17
166 2 193.173 50.8663 -5.55112e-17
167 1 148.745 59.4619 -5.55112e-17
168 1 147.374 153.2 -5.55112e-17
169 1 73.0212 127.728 -5.55112e-17
170 1 109.204 161.7 -5.55112e-17
171 1 182.258 108.142 -5.55112e-17
172 1 39.946 76.7264 -5.55112e-17
173 1 15.9258 154.585 -5.55112e-17
174 1 88.2207 116.934 -5.55112e-17
175 2 145.849 166.046 -5.55112e-17
176 1 54.2859 118.808 -5.55112e-17
177 2 53.2356 85.072 -5.55112e-17
178 1 35.6905 109.665 -5.55112e-17
179 1 203.986 140.544 -5.55112e-17
180 1 186.469 203.837 -5.55112e-17
181 1 194.432 180.47 -5.55112e-17
182 2 3.53236 12.8783 -5.55112e-17
183 1 53.9849 138.552 -5.55112e-17
184 1 194.955 70.0611 -5.55112e-17
185 2 144.261 23.4228 -5.55112e-17
186 2 153.898 120.564 -5.55112e-17
187 1 98.3653 53.1301 -5.55112e-17
188 1 127.612 7.57474 -5.55112e-17
189 1 146.329 191.515 -5.55112e-17
190 2 52.4394 136.351 -5.55112e-17
191 1 150.814 7.96777 -5.55112e-17
192 2 9.10226 70.9618 -5.55112e-17
193 2 94.5856 166.242 -5.55112e-17
194 1 198.82 140.285 -5.55112e-17
195 1 208.922 188.076 -5.55112e-17
196 1 179.454 123.669 -5.55112e-17
197 1 38.6752 91.1647 -5.55112e-17
198 2 58.8417 150.958 -5.55112e-17
199 1 29.8884 208.131 -5.55112e-17
200 1 104.567 35.1247 -5.55112e-17
201 2 51.6754 112.079 -5.55112e-17
202 1 81.6126 29.7082 -5.55112e-17
203 1 184.19 74.5169 -5.55112e-17
204 1 165.947 125.373 -5.55112e-17
205 2 35.925 89.6687 -5.55112e-17
206 1 103.359 134.363 -5.55112e-17
207 1 112.65 57.2285 -5.55112e-17
208 1 59.4592 92.2797 -5.55112e-17
209 1 87.5475 200.493 -5.55112e-17
210 1 13.4751 88.0223 -5.55112e-17
211 2 149.609 171.778 -5.55112e-17
212 1 184.037 53.5481 -5.55112e-17
213 1 179.525 72.87 -5.55112e-17
214 1 67.2607 46.7987 -5.55112e-17
215 1 127.936 218.892 -5.55112e-17
216 1 186.59 86.9426 -5.55112e-17
217 1 124.472 161.151 -5.55112e-17
218 2 21.7486 129.201 -5.55112e-17
219 1 103.746 187.251 -5.55112e-17
220 2 131.491 72.4532 -5.55112e-17
221 1 217.005 58.8769 -5.55112e-17
222 1 140.345 103.166 -5.55112e-17
223 1 45.6958 191.137 -5.55112e-17
224 2 48.5837 191.818 -5.55112e-17
225 1 193.252 146.801 -5.55112e-17
226 1 0.647768 187.161 -5.55112e-17
227 2 46.0719 212.703 -5.55112e-17
228 1 102.242 132.24 -5.55112e-17
229 1 16.6491 161.778 -5.55112e-17
230 1 158.465 149.024 -5.55112e-17
231 1 141.603 63.7585 -5.55112e-17
232 1 211.835 62.3068 -5.55112e-17
233 1 27.8661 84.675 -5.55112e-17
234 1 114.676 42.5105 -5.55112e-17
235 1 210.141 90.3205 -5.55112e-17
236 1 64.6528 117.687 -5.55112e-17
237 1 203.916 160.572 -5.55112e-17
238 1 99.7005 131.994 -5.55112e-17
239 2 48.8729 107.349 -5.55112e-17
240 1 122.334 207.984 -5.55112e-17
241 2 131.44 194.58 -5.55112e-17
242 2 194.933 213.325 -5.55112e-17
243 2 87.6269 21.334 -5.55112e-17
244 1 85.4363 47.3351 -5.55112e-17
245 1 50.2179 99.1969 -5.55112e-17
246 1 153.143 132.821 -5.55112e-17
247 1 184.578 92.5206 -5.55112e-17
248 1 161.704 0.71461 -5.55112e-17
249 1 217.102 80.1847 -5.55112e-17
250 2 136.811 11.9958 -5.55112e-17
251 1 129.528 37.876 -5.55112e-17
252 1 204.037 14.9737 -5.55112e-17
253 1 170.394 54.0967 -5.55112e-17
254 2 58.1146 156.415 -5.55112e-17
255 1 200.003 169.86 -5.55112e-17
256 1 81.6149 166.025 -5.55112e-17
257 1 35.5859 146.46 -5.55112e-17
258 2 167.597 39.1288 -5.55112e-17
259 1 53.069 104.82 -5.55112e-17
260 1 92.3389 106.832 -5.55112e-17
261 1 210.704 178.708 -5.55112e-17
262 1 57.1932 81.3126 -5.55112e-17
263 1 33.9326 60.9516 -5.55112e-17
264 1 173.156 12.6351 -5.55112e-17
265 1 4.38424 34.5481 -5.55112e-17
266 1 181.566 19.8357 -5.55112e-17
267 1 206.821 104.59 -5.55112e-17
268 1 39.0641 35.0675 -5.55112e-17
269 1 121.648 79.571 -5.55112e-17
270 1 113.341 102.4 -5.55112e-17
271 1 77.7677 86.9704 -5.55112e-17
272 1 179.737 181.969 -5.55112e-17
273 1 65.9786 0.9666 -5.55112e-17
274 2 120.141 84.7916 -5.55112e-17
275 1 77.3524 81.7394 -5.55112e-17
276 2 58.249 11.2944 -5.55112e-17
277 2 135.855 82.6583 -5.55112e-17
278 1 49.2266 136.176 -5.55112e-17
279 2 100.466 28.5676 -5.55112e-17
280 1 3.67625 22.4572 -5.55112e-17
281 1 111.497 210.252 -5.55112e-17
282 1 120.082 188.384 -5.55112e-17
283 1 124.263 135.868 -5.55112e-17
284 1 89.9684 57.9187 -5.55112e-17
285 1 215.431 207.311 -5.55112e-17
286 2 61.7204 217.656 -5.55112e-17
287 1 28.9952 123.131 -5.55112e-17
288 1 3.83193 98.8142 -5.55112e-17
289 1 55.3294 27.6752 -5.55112e-17
290 1 172.001 181.731 -5.55112e-17
291 1 156.318 138.99 -5.55112e-17
292 2 51.3031 16.5494 -5.55112e-17
293 2 102.675 218.969 -5.55112e-17
294 1 142.563 48.5838 -5.55112e-17
295 1 122.779 212.601 -5.55112e-17
296 1 128.859 35.3103 -5.55112e-17
297 1 160.878 149.75 -5.55112e-17
298 1 165.396 5.219 -5.55112e-17
299 1 128.051 97.4563 -5.55112e-17
300 2 58.6132 140.956 -5.55112e-17
301 1 24.4904 31.7369 -5.55112e-17
302 1 134.459 158.824 -5.55112e-17
303 2 38.0963 32.1904 -5.55112e-17
304 2 152.824 161.889 -5.55112e-17
305 1 76.2609 131.502 -5.55112e-17
306 1 14.4762 32.4855 -5.55112e-17
307 1 24.003 151.827 -5.55112e-17
308 1 150.664 60.8258 -5.55112e-17
309 2 87.9833 151.662 -5.55112e-17
310 1 12.7155 7.59886 -5.55112e-17
311 1 77.3146 68.6639 -5.55112e-17
312 1 165.241 133.881 -5.55112e-17
313 2 142.18 10.7007 -5.55112e-17
314 1 76.2103 88.9223 -5.55112e-17
315 1 118.523 141.673 -5.55112e-17
316 1 43.4394 19.9114 -5.55112e-17
317 1 18.8183 149.32 -5.55112e-17
318 1 131.275 191.733 -5.55112e-17
319 1 70.1644 16.0271 -5.55112e-17
320 1 117.152 85.4529 -5.55112e-17
321 1 56.1763 13.3425 -5.55112e-17
322 1 150.399 129.423 -5.55112e-17
323 1 151.383 149.469 -5.55112e-17
324 1 85.7269 39.1305 -5.55112e-17
325 1 134.425 139.282 -5.55112e-17
326 1 92.9107 145.102 -5.55112e-17
327 2 120.003 170.438 -5.55112e-17
328 1 206.567 39.0468 -5.55112e-17
329 2 13.7145 139.802 -5.55112e-17
330 1 217.65 151.48 -5.55112e-17
331 1 149.562 179.368 -5.55112e-17
332 2 131.092 114.536 -5.55112e-17
333 1 56.0249 3.84157 -5.55112e-17
334 1 96.0416 173.465 -5.55112e-17
335 1 214.499 201.983 -5.55112e-17
336 1 166.978 129.628 -5.55112e-17
337 1 150.632 211.605 -5.55112e-17
338 1 168.626 24.1285 -5.55112e-17
339 1 101.808 77.9822 -5.55112e-17
340 1 171.558 142.494 -5.55112e-17
341 1 129.636 171.451 -5.55112e-17
342 1 159.95 197.398 -5.55112e-17
343 1 147.545 90.18 -5.55112e-17
344 1 79.907 154.607 -5.55112e-17
345 1 30.0641 19.2068 -5.55112e-17
346 1 3.30918 176.253 -5.55112e-17
347 1 78.3712 95.0491 -5.55112e-17
348 1 119.405 156.729 -5.55112e-17
349 1 49.4857 59.4456 -5.55112e-17
350 2 71.6184 69.8846 -5.55112e-17
351 1 175.287 37.1171 -5.55112e-17
352 1 3.63923 141.214 -5.55112e-17
353 1 42.3126 215.515 -5.55112e-17
354 1 154.833 174.069 -5.55112e-17
355 1 90.22 144.624 -5.55112e-17
356 1 17.6327 2.66723 -5.55112e-17
357 1 42.2776 177.671 -5.55112e-17
358 1 205.557 199.933 -5.55112e-17
359 1 197.436 152.725 -5.55112e-17
360 1 37.2323 133.495 -5.55112e-17
361 1 111.018 197.143 -5.55112e-17
362 1 202.904 218.398 -5.55112e-17
363 1 180.064 191.641 -5.55112e-17
364 2 169.465 121.854 -5.55112e-17
365 1 168.184 86.7955 -5.55112e-17
366 1 123.894 142.726 -5.55112e-17
367 1 52.1826 60.3283 -5.55112e-17
368 1 197.059 207.293 -5.55112e-17
369 2 105.694 205.896 -5.55112e-17
370 1 17.5375 23.4289 -5.55112e-17
371 1 15.7692 128.138 -5.55112e-17
372 2 209.448 55.7586 -5.55112e-17
373 2 147.215 11.6713 -5.55112e-17
374 1 174.598 49.1863 -5.55112e-17
375 1 193.141 103.651 -5.55112e-17
376 1 54.6707 182.321 -5.55112e-17
377 1 1.09756 92.4893 -5.55112e-17
378 1 64.6996 173.451 -5.55112e-17
379 1 15.9573 83.3309 -5.55112e-17
380 1 170.501 146.8 -5.55112e-17
381 1 16.2382 190.665 -5.55112e-17
382 1 58.8932 57.4906 -5.55112e-17
383 1 133.358 55.6785 -5.55112e-17
384 1 40.5066 47.0296 -5.55112e-17
385 1 183.657 138.542 -5.55112e-17
386 2 64.3198 42.9735 -5.55112e-17
387 1 137.07 204.164 -5.55112e-17
388 1 98.3117 99.038 -5.55112e-17
389 1 94.4753 184.792 -5.55112e-17
390 2 204.992 167.79 -5.55112e-17
391 2 207.995 12.3386 -5.55112e-17
392 1 66.9011 184.375 -5.55112e-17
393 1 20.7346 37.0327 -5.55112e-17
394 1 56.0309 108.986 -5.55112e-17
395 1 58.0987 214.737 -5.55112e-17
396 1 205.56 170.801 -5.55112e-17
397 1 131.225 57.1968 -5.55112e-17
398 1 2.32781 191.918 -5.55112e-17
399 1 14.7684 6.13564 -5.55112e-17
400 1 111.768 28.5072 -5.55112e-17
401 1 111.302 169.261 -5.55112e-17
402 2 206.857 150.794 -5.55112e-17
403 1 9.1838 26.253 -5.55112e-17
404 1 26.6468 122.81 -5.55112e-17
405 1 17.0361 197.987 -5.55112e-17
406 1 182.864 43.5346 -5.55112e-17
407 2 40.316 52.2273 -5.55112e-17
408 1 61.7497 41.5889 -5.55112e-17
409 1 169.48 131.136 -5.55112e-17
410 1 43.5303 213.447 -5.55112e-17
411 1 174.399 165.606 -5.55112e-17
412 1 120.181 61.8859 -5.55112e-17
413 1 39.8284 134.489 -5.55112e-17
414 1 21.927 206.334 -5.55112e-17
415 1 159.703 154.01 -5.55112e-17
416 1 71.4016 43.5766 -5.55112e-17
417 1 112.751 94.4883 -5.55112e-17
418 2 186.73 198.646 -5.55112e-17
419 1 116.203 141.063 -5.55112e-17
420 2 174.766 99.0213 -5.55112e-17
421 1 35.8596 112.022 -5.55112e-17
422 1 153.499 195.211 -5.55112e-17
423 2 162.99 214.246 -5.55112e-17
424 1 104.835 164.58 -5.55112e-17
425 1 132.539 140.897 -5.55112e-17
426 1 138.147 110.883 -5.55112e-17
427 1 89.7273 124.218 -5.55112e-17
428 1 49.7959 173.693 -5.55112e-17
429 1 150.253 124.011 -5.55112e-17
430 1 171.262 23.5046 -5.55112e-17
431 1 157.784 160.817 -5.55112e-17
432 1 171.387 59.6685 -5.55112e-17
433 1 112.497 145.089 -5.55112e-17
434 1 45.1345 45.2607 -5.55112e-17
435 1 156.315 165.011 -5.55112e-17
436 1 37.8385 18.896 -5.55112e-17
437 1 187.126 131.567 -5.55112e-17
438 2 112.567 46.9565 -5.55112e-17
439 1 90.7014 14.8263 -5.55112e-17
440 1 209.512 79.1345 -5.55112e-17
441 1 179.571 177.222 -5.55112e-17
442 1 85.1586 210.547 -5.55112e-17
443 1 210.747 87.7194 -5.55112e-17
444 1 205.042 103.05 -5.55112e-17
445 1 128.751 58.5815 -5.55112e-17
446 1 189.911 123.931 -5.55112e-17
447 1 41.2519 186.217 -5.55112e-17
448 1 94.3954 21.2415 -5.55112e-17
449 1 152.702 127.796 -5.55112e-17
450 1 132.927 218.838 -5.55112e-17
451 1 205.729 32.5545 -5.55112e-17
452 1 148.521 131.066 -5.55112e-17
453 1 190.578 171.944 -5.55112e-17
454 1 201.811 8.55651 -5.55112e-17
455 1 79.3619 83.0506 -5.55112e-17
456 1 166.018 12.4326 -5.55112e-17
457 1 77.6522 72.8812 -5.55112e-17
458 1 187.452 201.406 -5.55112e-17
459 1 64.8842 45.7529 -5.55112e-17
460 1 175.983 89.6579 -5.55112e-17
461 1 181.13 184.292 -5.55112e-17
462 1 30.1078 135.893 -5.55112e-17
463 1 136.301 14.9942 -5.55112e-17
464 1 142.031 13.6017 -5.55112e-17
465 1 139.59 131.584 -5.55112e-17
466 1 50.9944 148.663 -5.55112e-17
467 1 33.9727 92.1643 -5.55112e-17
468 1 189.29 203.207 -5.55112e-17
469 1 57.8717 70.7456 -5.55112e-17
470 1 74.2406 31.7633 -5.55112e-17
471 1 135.081 197.096 -5.55112e-17
472 1 48.2412 123.842 -5.55112e-17
473 1 83.1081 120.63 -5.55112e-17
474 1 83.9144 147.972 -5.55112e-17
475 1 116.446 198.052 -5.55112e-17
476 2 188.345 11.9178 -5.55112e-17
477 1 8.63939 94.2853 -5.55112e-17
478 1 1.97639 184.996 -5.55112e-17
479 1 7.62744 50.3173 -5.55112e-17
480 1 90.8859 34.3292 -5.55112e-17
481 1 217.296 121.171 -5.55112e-17
482 1 107.823 151.818 -5.55112e-17
483 1 124.398 147.347 -5.55112e-17
484 2 97.0395 76.2919 -5.55112e-17
485 1 51.0435 203.424 -5.55112e-17
486 1 86.1807 36.5033 -5.55112e-17
487 1 64.8796 3.40924 -5.55112e-17
488 1 68.9124 79.1631 -5.55112e-17
489 1 211.565 92.6051 -5.55112e-17
490 1 8.73833 39.8532 -5.55112e-17
491 1 174.819 77.7935 -5.55112e-17
492 1 180.169 146.934 -5.55112e-17
493 1 151.849 218.842 -5.55112e-17
494 1 185.58 24.0094 -5.55112e-17
495 1 127.142 62.9258 -5.55112e-17
496 2 73.6029 210.808 -5.55112e-17
497 1 27.7685 4.85365 -5.55112e-17
498 1 106.311 125.741 -5.55112e-17
499 2 120.15 185.63 -5.55112e-17
500 1 74.0859 4.01664 -5.55112e-17
501 2 151.244 15.4423 -5.55112e-17
502 2 131.875 160.815 -5.55112e-17
503 1 173.002 172.761 -5.55112e-17
504 1 120.451 139.717 -5.55112e-17
505 1 196.238 50.9387 -5.55112e-17
506 1 15.1494 169.133 -5.55112e-17
507 1 89.2366 142.228 -5.55112e-17
508 1 166.324 35.443 -5.55112e-17
509 2 55.9024 72.8087 -5.55112e-17
510 2 157.066 114.725 -5.55112e-17
511 1 9.00374 34.6671 -5.55112e-17
512 2 29.714 71.7634 -5.55112e-17
513 1 55.9935 202.107 -5.55112e-17
514 1 85.151 67.7916 -5.55112e-17
515 1 218.53 196.483 -5.55112e-17
516 1 26.427 163.939 -5.55112e-17
517 1 98.1375 111.715 -5.55112e-17
518 2 122.145 64.9201 -5.55112e-17
519 1 18.5761 35.6806 -5.55112e-17
520 2 48.5751 25.6525 -5.55112e-17
521 1 148.513 119.364 -5.55112e-17
522 1 15.8797 216.345 -5.55112e-17
523 1 9.65189 111.93 -5.55112e-17
524 1 26.1653 76.1447 -5.55112e-17
525 1 52.4228 173.42 -5.55112e-17
526 1 180.987 42.1702 -5.55112e-17
527 1 84.202 208.551 -5.55112e-17
528 1 154.957 33.6705 -5.55112e-17
529 1 40.1579 178.787 -5.55112e-17
530 1 153.258 81.5541 -5.55112e-17
531 1 49.6172 140.903 -5.55112e-17
532 1 28.1079 183.585 -5.55112e-17
533 1 94.4035 175.405 -5.55112e-17
534 1 101.402 141.027 -5.55112e-17
535 1 180.912 153.166 -5.55112e-17
536 1 161.35 142.492 -5.55112e-17
537 1 201.768 206.558 -5.55112e-17
538 1 174.664 74.9021 -5.55112e-17
539 1 74.4405 216 -5.55112e-17
540 1 118.902 96.9525 -5.55112e-17
541 1 92.5041 217.239 -5.55112e-17
542 1 64.5223 11.37 -5.55112e-17
543 1 104.154 169.544 -5.55112e-17
544 1 157.215 175.695 -5.55112e-17
545 1 45.1272 139.269 -5.55112e-17
546 1 171.727 20.7184 -5.55112e-17
547 1 197.495 147.282 -5.55112e-17
548 1 47.2425 182.834 -5.55112e-17
549 1 38.7818 13.0817 -5.55112e-17
550 2 187.947 136.463 -5.55112e-17
551 2 124.073 103.304 -5.55112e-17
552 2 120.017 175.407 -5.55112e-17
553 1 101.144 2.44698 -5.55112e-17
554 1 20.0342 100.701 -5.55112e-17
555 2 8.72426 90.2974 -5.55112e-17
556 1 168.516 195.714 -5.55112e-17
557 1 76.5695 26.8643 -5.55112e-17
558 1 149.253 151.532 -5.55112e-17
559 1 211.46 30.1052 -5.55112e-17
560 1 142.819 92.8861 -5.55112e-17
561 1 165.286 155.049 -5.55112e-17
562 1 159.199 151.457 -5.55112e-17
563 2 184.532 206.436 -5.55112e-17
564 1 4.12064 65.9702 -5.55112e-17
565 1 80.2282 206.333 -5.55112e-17
566 1 77.9791 57.4522 -5.55112e-17
567 1 189.85 118.955 -5.55112e-17
568 1 66.8627 182.038 -5.55112e-17
569 1 84.2382 173.543 -5.55112e-17
570 1 126.833 127.429 -5.55112e-17
571 1 200.129 194.345 -5.55112e-17
572 1 86.0692 65.1916 -5.55112e-17
573 1 176.725 41.3879 -5.55112e-17
574 1 195.099 157.24 -5.55112e-17
575 1 208.17 68.9461 -5.55112e-17
576 1 152.505 125.33 -5.55112e-17
577 1 182.955 9.90907 -5.55112e-17
578 1 127.191 206.821 -5.55112e-17
579 1 36.0642 200.649 -5.55112e-17
580 1 142.319 105.242 -5.55112e-17
581 1 167.32 164.213 -5.55112e-17
582 1 51.5419 33.8826 -5.55112e-17
583 1 183.703 15.6622 -5.55112e-17
584 2 5.71262 168.915 -5.55112e-17
585 1 81.8893 102.966 -5.55112e-17
586 1 147.242 173.248 -5.55112e-17
587 1 3.65641 75.2476 -5.55112e-17
588 1 27.7018 171.956 -5.55112e-17
589 1 121.144 210.532 -5.55112e-17
590 1 75.2114 16.9944 -5.55112e-17
591 1 84.2862 169.294 -5.55112e-17
592 1 26.5668 112.454 -5.55112e-17
593 1 25.9496 201.12 -5.55112e-17
594 1 215.004 189.265 -5.55112e-17
595 1 101.788 66.8707 -5.55112e-17
596 1 47.8325 42.5211 -5.55112e-17
597 2 212.498 19.8594 -5.55112e-17
598 1 188.183 210.547 -5.55112e-17
599 1 49.395 1.09748 -5.55112e-17
600 1 136.921 5.20985 -5.55112e-17
601 1 69.5506 190.725 -5.55112e-17
602 1 118.391 10.5796 -5.55112e-17
603 1 18.811 196.389 -5.55112e-17
604 1 95.7542 7.40101 -5.55112e-17
605 2 119.078 104.836 -5.55112e-17
606 1 156.515 190.936 -5.55112e-17
607 2 125.749 174.952 -5.55112e-17
608 1 114.33 107.035 -5.55112e-17
609 1 51.1341 193.954 -5.55112e-17
610 1 182.638 147.905 -5.55112e-17
611 1 43.3432 170.377 -5.55112e-17
612 1 44.0604 58.3926 -5.55112e-17
613 1 193.584 165.198 -5.55112e-17
614 2 147.184 199.827 -5.55112e-17
615 1 114.697 206.945 -5.55112e-17
616 1 181.226 128.139 -5.55112e-17
617 1 55.392 204.449 -5.55112e-17
618 1 199.483 180.143 -5.55112e-17
619 1 194.512 84.6816 -5.55112e-17
620 1 163.41 72.8491 -5.55112e-17
621 1 184.024 66.077 -5.55112e-17
622 1 116.705 216.859 -5.55112e-17
623 1 193.694 210.397 -5.55112e-17
624 1 32.0423 204.208 -5.55112e-17
625 1 177.862 119.265 -5.55112e-17
626 1 121.709 177.78 -5.55112e-17
627 1 46.391 111.761 -5.55112e-17
628 1 52.8524 43.3802 -5.55112e-17
629 1 67.5728 118.088 -5.55112e-17
630 2 185.68 33.472 -5.55112e-17
631 1 40.2396 79.6715 -5.55112e-17
632 1 52.1195 94.7063 -5.55112e-17
633 1 40.5739 210.381 -5.55112e-17
634 1 191.751 85.1015 -5.55112e-17
635 1 140.96 100.553 -5.55112e-17
636 1 6.2552 85.4519 -5.55112e-17
637 1 29.9533 42.7079 -5.55112e-17
638 1 11.2663 53.801 -5.55112e-17
639 2 40.1095 58.0008 -5.55112e-17
640 1 146.667 137.93 -5.55112e-17
641 1 157.038 119.625 -5.55112e-17
642 1 196.201 79.5058 -5.55112e-17
643 2 189.806 45.5046 -5.55112e-17
644 1 85.4394 175.725 -5.55112e-17
645 1 115.069 0.210519 -5.55112e-17
646 2 20.6229 174.431 -5.55112e-17
647 1 130.155 1.17193 -5.55112e-17
648 1 140.641 77.7517 -5.55112e-17
649 2 202.903 128.454 -5.55112e-17
650 1 1.15249 177.646 -5.55112e-17
651 1 198.335 144.811 -5.55112e-17
652 1 169.108 21.3728 -5.55112e-17
653 1 126.602 181.24 -5.55112e-17
654 1 37.4208 24.2764 -5.55112e-17
655 2 188.728 89.2011 -5.55112e-17
656 1 208.338 153.813 -5.55112e-17
657 2 101.171 17.7088 -5.55112e-17
658 1 30.2011 37.4183 -5.55112e-17
659 2 198.463 182.821 -5.55112e-17
660 1 68.8862 39.5909 -5.55112e-17
661 1 22.7029 117.168 -5.55112e-17
662 1 23.3747 134.082 -5.55112e-17
663 1 86.7397 213.035 -5.55112e-17
664 1 174.812 72.1919 -5.55112e-17
665 1 172.213 49.7416 -5.55112e-17
666 2 65.7596 187.424 -5.55112e-17
667 1 165.758 46.6423 -5.55112e-17
668 2 79.1033 102.353 -5.55112e-17
669 1 80.5539 61.5498 -5.55112e-17
670 1 116.321 2.62874 -5.55112e-17
671 2 81.0612 186.608 -5.55112e-17
672 1 195.025 7.51762 -5.55112e-17
673 1 45.6776 25.9944 -5.55112e-17
674 1 207.958 172.036 -5.55112e-17
675 1 115.098 57.7172 -5.55112e-17
676 1 155.968 107.188 -5.55112e-17
677 1 132.885 153.391 -5.55112e-17
678 1 139.556 12.0844 -5.55112e-17
679 2 184.715 218.844 -5.55112e-17
680 1 28.8688 7.18972 -5.55112e-17
681 2 145.893 17.3767 -5.55112e-17
682 1 193.571 38.7429 -5.55112e-17
683 1 48.6191 38.033 -5.55112e-17
684 1 128.443 169.033 -5.55112e-17
685 1 192.708 58.3554 -5.55112e-17
686 1 48.2491 126.502 -5.55112e-17
687 1 149.086 166.098 -5.55112e-17
688 1 148.071 80.5249 -5.55112e-17
689 2 75.4255 34.754 -5.55112e-17
690 1 78.4373 23.0703 -5.55112e-17
691 1 35.0099 56.5659 -5.55112e-17
692 1 139.498 155.097 -5.55112e-17
693 1 94.2616 9.71627 -5.55112e-17
694 1 26.1633 193.287 -5.55112e-17
695 1 181.238 98.9153 -5.55112e-17
696 1 161.523 83.3348 -5.55112e-17
697 1 132.02 148.18 -5.55112e-17
698 1 135.759 77.4252 -5.55112e-17
699 1 187.872 171.85 -5.55112e-17
700 1 24.3535 204.917 -5.55112e-17
701 1 27.4917 15.6231 -5.55112e-17
702 1 79.2708 110.201 -5.55112e-17
703 2 192.688 149.722 -5.55112e-17
704 1 82.9303 193.902 -5.55112e-17
705 2 204.712 78.4416 -5.55112e-17
706 1 111.323 159.276 -5.55112e-17
707 1 116.02 59.9701 -5.55112e-17
708 1 30.9791 161.536 -5.55112e-17
709 1 136.491 193.109 -5.55112e-17
710 1 188.865 162.229 -5.55112e-17
711 1 147.478 77.754 -5.55112e-17
712 1 186.359 174.011 -5.55112e-17
713 1 178.284 104.521 -5.55112e-17
714 1 139.75 42.5298 -5.55112e-17
715 1 71.9935 190.228 -5.55112e-17
716 1 74.4805 145.721 -5.55112e-17
717 1 198.342 74.6145 -5.55112e-17
718 1 169.831 179.821 -5.55112e-17
719 2 58.0594 89.43 -5.55112e-17
720 1 82.1596 63.6742 -5.55112e-17
721 1 208.831 106.284 -5.55112e-17
722 1 105.217 55.1072 -5.55112e-17
723 2 22.4923 49.6462 -5.55112e-17
724 1 3.17867 205.523 -5.55112e-17
725 1 30.1395 89.4789 -5.55112e-17
726 1 57.548 52.9893 -5.55112e-17
727 1 173.191 188.491 -5.55112e-17
728 2 212.675 134.527 -5.55112e-17
729 1 117.752 168.449 -5.55112e-17
730 1 54.9544 173.41 -5.55112e-17
731 1 72.9942 200.387 -5.55112e-17
732 1 76.2282 22.0806 -5.55112e-17
733 1 30.2743 39.9621 -5.55112e-17
734 1 210.88 25.178 -5.55112e-17
735 1 15.1091 22.2506 -5.55112e-17
736 2 20.8824 76.2217 -5.55112e-17
737 1 31.2109 113.806 -5.55112e-17
738 1 214.497 196.599 -5.55112e-17
739 1 114.699 150.197 -5.55112e-17
740 1 41.3543 168.804 -5.55112e-17
741 2 210.735 42.1848 -5.55112e-17
742 1 16.0698 41.3278 -5.55112e-17
743 1 53.2263 87.8553 -5.55112e-17
744 2 192.828 155.558 -5.55112e-17
745 1 133.774 213.18 -5.55112e-17
746 1 216.27 5.54757 -5.55112e-17
747 2 205.052 17.5504 -5.55112e-17
748 1 40.0309 2.71874 -5.55112e-17
749 1 200.373 218.667 -5.55112e-17
750 1 0.987803 120.623 -5.55112e-17
751 1 42.3047 60.025 -5.55112e-17
752 1 137.605 167.873 -5.55112e-17
753 1 106.971 142.413 -5.55112e-17
754 1 204.099 207.094 -5.55112e-17
755 1 137.702 216.597 -5.55112e-17
756 2 147.542 176.274 -5.55112e-17
757 1 205.213 197.225 -5.55112e-17
758 1 217.51 171.189 -5.55112e-17
759 1 86.3271 134.767 -5.55112e-17
760 1 120.459 57.0638 -5.55112e-17
761 1 112.181 191.883 -5.55112e-17
762 1 0.932228 80.7081 -5.55112e-17
763 1 65.8472 98.2359 -5.55112e-17
764 2 136.798 182.52 -5.55112e-17
765 1 50.3318 43.1993 -5.55112e-17
766 1 112.564 18.0831 -5.55112e-17
767 1 101.737 108.077 -5.55112e-17
768 1 201.195 201.493 -5.55112e-17
769 1 93.8077 45.596 -5.55112e-17
770 2 86.7063 124.4 -5.55112e-17
771 1 172.7 198.418 -5.55112e-17
772 1 103.433 48.0679 -5.55112e-17
773 1 120.845 180.378 -5.55112e-17
774 1 125.071 100.528 -5.55112e-17
775 1 123.156 7.95719 -5.55112e-17
776 1 28.7351 2.56029 -5.55112e-17
777 1 165.77 200.029 -5.55112e-17
778 1 211.054 207.933 -5.55112e-17
779 1 171.067 11.0152 -5.55112e-17
780 1 178.619 128.322 -5.55112e-17
781 1 75.7213 128.554 -5.55112e-17
782 1 192.155 36.9781 -5.55112e-17
783 1 146.737 22.381 -5.55112e-17
784 2 211.456 98.4879 -5.55112e-17
785 1 133.674 202.168 -5.55112e-17
786 1 110.763 176.558 -5.55112e-17
787 1 167.699 26.8161 -5.55112e-17
788 1 164.23 39.9756 -5.55112e-17
789 2 166.245 108.733 -5.55112e-17
790 1 68.5312 55.3868 -5.55112e-17
791 2 56.7298 171.196 -5.55112e-17
792 2 211.265 5.34307 -5.55112e-17
793 2 140.063 53.2701 -5.55112e-17
794 1 79.022 214.169 -5.55112e-17
795 1 172.594 47.1929 -5.55112e-17
796 1 90.104 21.878 -5.55112e-17
797 1 163.568 136.312 -5.55112e-17
798 2 202.947 33.0286 -5.55112e-17
799 2 217.255 92.4531 -5.55112e-17
800 2 86.7452 215.882 -5.55112e-17
801 1 62.5638 127.536 -5.55112e-17
802 1 75.9418 93.9391 -5.55112e-17
803 1 189.238 73.4252 -5.55112e-17
804 2 95.465 40.3524 -5.55112e-17
805 1 2.57361 128.441 -5.55112e-17
806 1 55.1025 152.993 -5.55112e-17
807 2 96.2657 88.2532 -5.55112e-17
808 1 54.3682 96.029 -5.55112e-17
809 2 7.43879 110.217 -5.55112e-17
810 1 122.744 200.242 -5.55112e-17
811 1 213.532 211.533 -5.55112e-17
812 1 130.246 3.84808 -5.55112e-17
813 2 145.989 97.6635 -5.55112e-17
814 1 83.5701 104.594 -5.55112e-17
815 1 90.3972 156.854 -5.55112e-17
816 1 198.219 11.5864 -5.55112e-17
817 1 155.161 8.63447 -5.55112e-17
818 1 37.5494 172.238 -5.55112e-17
819 1 62.0052 183.728 -5.55112e-17
820 1 32.3399 176.697 -5.55112e-17
821 1 101.98 143.647 -5.55112e-17
822 2 6.87646 161.066 -5.55112e-17
823 2 119.827 67.4346 -5.55112e-17
824 1 57.2482 42.2959 -5.55112e-17
825 1 15.3859 3.80223 -5.55112e-17
826 1 16.3636 193.053 -5.55112e-17
827 1 177.281 156.688 -5.55112e-17
828 1 125.948 105.159 -5.55112e-17
829 1 143.773 204.217 -5.55112e-17
830 1 59.7077 123.489 -5.55112e-17
831 1 186.03 21.5583 -5.55112e-17
832 1 35.9945 82.6713 -5.55112e-17
833 1 26.5881 63.2619 -5.55112e-17
834 1 114.614 16.7439 -5.55112e-17
835 1 40.789 33.151 -5.55112e-17
836 1 12.4749 48.865 -5.55112e-17
837 1 32.3734 73.6083 -5.55112e-17
838 1 168.553 206.151 -5.55112e-17
839 2 191.944 178.931 -5.55112e-17
840 1 151.459 27.693 -5.55112e-17
841 2 87.4696 177.781 -5.55112e-17
842 1 83.2407 51.178 -5.55112e-17
843 2 171.965 151.739 -5.55112e-17
844 1 36.5467 203.388 -5.55112e-17
845 1 85.4762 171.292 -5.55112e-17
846 1 135.117 174.59 -5.55112e-17
847 1 97.1882 175.824 -5.55112e-17
848 1 134.695 65.6347 -5.55112e-17
849 1 188.563 139.4 -5.55112e-17
850 1 214.942 136.381 -5.55112e-17
851 1 83.9151 32.8384 -5.55112e-17
852 1 133.691 183.503 -5.55112e-17
853 1 73.3304 140.866 -5.55112e-17
854 1 112.211 108.664 -5.55112e-17
855 1 108.508 73.115 -5.55112e-17
856 1 89.5779 190.944 -5.55112e-17