ITEM: TIMESTEP
0
ITEM: NUMBER OF ATOMS
7200
ITEM: BOX BOUNDS xy xz yz pp pp pp
0.0000000000000000e+00 2.1900000000000000e+02 0.0000000000000000e+00
0.0000000000000000e+00 2.1900000000000000e+02 0.0000000000000000e+00
-3.6499999999999999e-01 3.6499999999999999e-01 0.0000000000000000e+00
ITEM: ATOMS id type x y z
1 1 67.4475 134.744 -5.55112e-17
2 1 183.235 108.651 -5.55112e-17
3 1 13.974 157.925 -5.55112e-17
4 1 3.89675 86.2873 -5.55112e-17
5 1 215.82 157.485 -5.55112e-17
6 1 117.003 210.58 -5.55112e-17
7 1 42.2116 51.7416 -5.55112e-17
8 2 149.298 83.0407 -5.55112e-17
9 1 203.563 10.0706 -5.55112e-17
10 2 58.253 193.275 -5.55112e-17
11 1 114.4 14.8592 -5.55112e-17
12 1 129.316 77.6769 -5.55112e-17
13 2 51.4365 79.3563 -5.55112e-17
14 1 65.5018 17.5668 -5.55112e-17
15 1 137.019 104.942 -5.55112e-17
16 2 60.8805 172.202 -5.55112e-17
17 1 113.712 30.8365 -5.55112e-17
18 2 31.522 78.3866 -5.55112e-17
19 1 106.523 52.172 -5.55112e-17
20 1 144.459 103.743 -5.55112e-17
21 1 42.0742 5.1955 -5.55112e-17
22 2 49.6131 148.111 -5.55112e-17
23 2 17.6089 54.6972 -5.55112e-17
24 1 159.526 99.4052 -5.55112e-17
25 1 75.6975 182.887 -5.55112e-17
26 2 86.59 96.7991 -5.55112e-17
27 1 155.628 174.35 -5.55112e-17
28 2 24.5579 158.881 -5.55112e-17
29 1 53.3586 46.7527 -5.55112e-17
30 1 139.791 88.1809 -5.55112e-17
31 1 211.5 90.7165 -5.55112e-17
32 1 58.0826 104.307 -5.55112e-17
33 1 157.633 154.506 -5.55112e-17
34 1 61.3512 77.8596 -5.55112e-17
35 1 177.262 68.5633 -5.55112e-17
36 1 61.8389 75.3111 -5.55112e-17
37 2 136.449 140.674 -5.55112e-17
38 1 197.638 74.6826 -5.55112e-17
39 1 122.33 138.155 -5.55112e-17
40 1 165.746 163.971 -5.55112e-17
41 1 120.715 181.984 -5.55112e-17
42 1 102.682 36.7428 -5.55112e-17
43 1 135.37 60.5458 -5.55112e-17
44 1 107.042 23.412 -5.55112e-17
45 1 214.659 84.5985 -5.55112e-17
46 1 28.3802 203.417 -5.55112e-17
47 1 88.8202 172.398 -5.55112e-17
48 2 47.4371 86.2473 -5.55112e-17
49 1 76.5467 110.524 -5.55112e-17
50 1 46.3427 197.378 -5.55112e-17
51 1 181.323 34.5507 -5.55112e-17
52 1 203.851 132.816 -5.55112e-17
53 1 156.476 27.4173 -5.55112e-17
54 1 24.0689 119.43 -5.55112e-17
55 1 22.7708 48.5667 -5.55112e-17
56 1 117.692 140.089 -5.55112e-17
57 2 68.0892 214.331 -5.55112e-17
58 1 35.579 40.6713 -5.55112e-17
59 1 29.5642 151.904 -5.55112e-17
60 2 151.903 147.366 -5.55112e-17
61 2 36.1962 202.729 -5.55112e-17
62 1 11.3167 161.899 -5.55112e-17
63 1 111.864 197.648 -5.55112e-17
64 1 133.678 39.0949 -5.55112e-17
65 1 214.027 113.796 -5.55112e-17
66 1 129.21 134.267 -5.55112e-17
67 1 95.792 139.611 -5.55112e-17
68 1 66.5434 116.654 -5.55112e-17
69 1 140.87 173.972 -5.55112e-17
70 1 59.1733 111.346 -5.55112e-17
71 1 7.5964 126.11 -5.55112e-17
72 1 171.633 60.6199 -5.55112e-17
73 1 187.908 186.202 -5.55112e-17
74 1 207.67 21.6467 -5.55112e-17
75 2 93.7875 1.24535 -5.55112e-17
76 1 17.7411 4.81651 -5.55112e-17
77 1 36.1775 21.474 -5.55112e-17
78 1 124.73 117.182 -5.55112e-17
79 2 126.388 1.1218 -5.55112e-17
80 1 75.0926 106.398 -5.55112e-17
81 1 110.428 140.698 -5.55112e-17
82 1 53.7458 142.044 -5.55112e-17
83 2 129.821 182.07 -5.55112e-17
84 1 179.828 80.4039 -5.55112e-17
85 1 22.5532 41.6194 -5.55112e-17
86 1 128.095 142.144 -5.55112e-17
87 1 217.514 217.262 -5.55112e-17
88 1 19.2622 35.2372 -5.55112e-17
89 2 44.0997 3.21076 -5.55112e-17
90 2 190.199 187.689 -5.55112e-17
91 1 150.062 90.5788 -5.55112e-17
92 2 168.912 21.3458 -5.55112e-17
93 1 141.869 15.0455 -5.55112e-17
94 2 202.654 12.7763 -5.55112e-17
95 1 33.4301 194.746 -5.55112e-17
96 1 130.468 95.3666 -5.55112e-17
97 1 97.2149 4.70545 -5.55112e-17
98 1 125.106 55.1279 -5.55112e-17
99 1 178.3 21.6172 -5.55112e-17
100 1 176.306 8.69469 -5.55112e-17
101 1 114.406 12.3656 -5.55112e-17
102 1 24.8851 46.2794 -5.55112e-17
103 1 58.0426 80.8651 -5.55112e-17
104 1 68.6822 109.226 -5.55112e-17
105 1 142.526 201.489 -5.55112e-17
106 1 78.1327 102.94 -5.55112e-17
107 2 146.362 101.27 -5.55112e-17
108 1 36.2091 210.343 -5.55112e-17
109 1 54.5907 89.1828 -5.55112e-17
110 1 107.721 63.3424 -5.55112e-17
111 1 61.2567 20.7869 -5.55112e-17
112 1 95.0418 137.337 -5.55112e-17
113 1 100.495 44.7571 -5.55112e-17
114 1 158.451 23.2583 -5.55112e-17
115 1 50.9939 163.016 -5.55112e-17
116 2 214.246 133.87 -5.55112e-17
117 1 201.794 216.565 -5.55112e-17
118 1 165.063 67.6209 -5.55112e-17
119 2 58.0065 98.6532 -5.55112e-17
120 1 53.3441 199.093 -5.55112e-17
121 1 152.316 83.7587 -5.55112e-17
122 1 102.861 14.6515 -5.55112e-17
123 1 136.965 76.095 -5.55112e-17
124 1 154.89 201.215 -5.55112e-17
125 1 141.404 117.774 -5.55112e-17
126 1 111.644 65.6798 -5.55112e-17
127 1 163.918 77.6466 -5.55112e-17
128 1 175.205 136.599 -5.55112e-17
129 1 7.82137 104.266 -5.55112e-17
130 1 83.7181 128.547 -5.55112e-17
131 1 176.222 152.744 -5.55112e-17
132 2 183.416 2.17559 -5.55112e-17
133 1 127.214 79.2929 -5.55112e-17
134 1 35.3259 86.1262 -5.55112e-17
135 1 78.3216 8.16081 -5.55112e-17
136 1 210.291 201.574 -5.55112e-17
137 1 101.91 136.695 -5.55112e-17
138 1 50.5436 211.959 -5.55112e-17
139 1 202.711 105.579 -5.55112e-17
140 2 141.837 186.102 -5.55112e-17
141 1 205.917 96.4894 -5.55112e-17
142 2 212.287 49.2833 -5.55112e-17
143 1 111.378 80.674 -5.55112e-17
144 2 43.5466 198.854 -5.55112e-17
145 1 172.482 102.888 -5.55112e-17
146 1 99.7218 120.374 -5.55112e-17
147 1 154.471 145.957 -5.55112e-17
148 1 6.58997 200.654 -5.55112e-17
149 1 68.1872 21.3532 -5.55112e-17
150 1 54.4889 37.4987 -5.55112e-17
151 1 26.1127 112.92 -5.55112e-17
152 1 63.4058 104.48 -5.55112e-17
153 2 52.3414 5.73755 -5.55112e-17
154 1 149.138 94.6059 -5.55112e-17
155 1 107.797 16.649 -5.55112e-17
156 2 71.3987 116.056 -5.55112e-17
157 1 207.374 104.738 -5.55112e-17
158 1 28.9272 29.3427 -5.55112e-17
159 1 22.4627 136.105 -5.55112e-17
160 1 11.9235 201.771 -5.55112e-17
161 1 1.94548 8.21293 -5.55112e-17
162 1 127.631 127.338 -5.55112e-17
163 1 17.7781 33.3032 -5.55112e-17
164 1 167.066 52.5476 -5.55112e-17
165 1 125.164 122.05 -5.55112e-17
166 2 159.408 60.4114 -5.55112e-17
167 1 175.328 46.4685 -5.55112e-17
168 1 148.96 169.382 -5.55112e-17
169 1 1.96635 101.789 -5.55112e-17
170 1 94.862 168.288 -5.55112e-17
171 1 146.816 60.7653 -5.55112e-17
172 1 218.747 17.8462 -5.55112e-17
173 1 45.9135 143.366 -5.55112e-17
174 1 131.324 62.5204 -5.55112e-17
175 2 137.363 160.761 -5.55112e-17
176 1 109.965 70.7668 -5.55112e-17
177 2 70.5798 57.2806 -5.55112e-17
178 1 65.7622 87.0684 -5.55112e-17
179 1 173.022 164.284 -5.55112e-17
180 1 203.379 197.266 -5.55112e-17
181 1 134.896 167.585 -5.55112e-17
182 2 77.4526 20.4018 -5.55112e-17
183 1 76.8608 163.682 -5.55112e-17
184 1 175.945 86.7636 -5.55112e-17
185 2 175.401 20.7718 -5.55112e-17
186 2 208.958 133.815 -5.55112e-17
187 1 92.9844 28.9125 -5.55112e-17
188 1 102.39 170.009 -5.55112e-17
189 1 123.68 174.276 -5.55112e-17
190 2 14.3844 160.634 -5.55112e-17
191 1 77.4734 157.164 -5.55112e-17
192 2 63.4776 109.637 -5.55112e-17
193 2 79.5965 172.512 -5.55112e-17
194 1 32.9966 148.987 -5.55112e-17
195 1 145.032 163.533 -5.55112e-17
196 1 168.171 191.447 -5.55112e-17
197 1 74.3652 70.0947 -5.55112e-17
198 2 9.82678 133.102 -5.55112e-17
199 1 210.993 57.2929 -5.55112e-17
200 1 80.4198 6.55167 -5.55112e-17
201 2 71.3627 110.009 -5.55112e-17
202 1 52.6423 210.401 -5.55112e-17
203 1 175.479 81.44 -5.55112e-17
204 1 188.589 156.925 -5.55112e-17
205 2 191.581 82.6155 -5.55112e-17
206 1 89.2651 132.832 -5.55112e-17
207 1 105.213 29.81 -5.55112e-17
208 1 32.9168 85.8913 -5.55112e-17
209 1 81.9601 2.29208 -5.55112e-17
210 1 7.94624 64.6718 -5.55112e-17
211 2 146.572 156.467 -5.55112e-17
212 1 120.486 112.537 -5.55112e-17
213 1 134.808 103.942 -5.55112e-17
214 1 74.4386 13.9393 -5.55112e-17
215 1 74.6188 201.881 -5.55112e-17
216 1 193.563 139.408 -5.55112e-17
217 1 126.969 186.863 -5.55112e-17
218 2 28.3989 168.502 -5.55112e-17
219 1 155.332 213.887 -5.55112e-17
220 2 106.489 55.4079 -5.55112e-17
221 1 213.422 56.2348 -5.55112e-17
222 1 143.299 146.152 -5.55112e-17
223 1 52.6486 207.538 -5.55112e-17
224 2 10.02 188.559 -5.55112e-17
225 1 201.513 142.525 -5.55112e-17
226 1 138.913 190.183 -5.55112e-17
227 2 51.0994 16.8906 -5.55112e-17
228 1 139.122 77.6167 -5.55112e-17
229 1 60.6528 135.894 -5.55112e-17
230 1 158.978 131.042 -5.55112e-17
231 1 148.507 122.859 -5.55112e-17
232 1 1.2631 90.6461 -5.55112e-17
233 1 110.183 100.715 -5.55112e-17
234 1 133.767 215.986 -5.55112e-17
235 1 20.5102 143.532 -5.55112e-17
236 1 46.1411 81.5847 -5.55112e-17
237 1 198.946 8.28932 -5.55112e-17
238 1 147.768 128.181 -5.55112e-17
239 2 17.4535 112.295 -5.55112e-17
240 1 99.5855 5.81085 -5.55112e-17
241 2 188.152 14.3151 -5.55112e-17
242 2 198.528 37.0565 -5.55112e-17
243 2 114.671 27.6271 -5.55112e-17
244 1 97.6193 7.56225 -5.55112e-17
245 1 84.8918 58.9155 -5.55112e-17
246 1 126.006 119.346 -5.55112e-17
247 1 210.93 98.5565 -5.55112e-17
248 1 94.3173 4.03361 -5.55112e-17
249 1 23.7575 65.9049 -5.55112e-17
250 2 149.62 29.9631 -5.55112e-17
251 1 153.42 212.115 -5.55112e-17
252 1 195.531 64.2675 -5.55112e-17
253 1 94.73 61.6136 -5.55112e-17
254 2 76.8995 197.385 -5.55112e-17
255 1 212.437 149.233 -5.55112e-17
256 1 84.5574 165.592 -5.55112e-17
257 1 212.036 151.642 -5.55112e-17
258 2 163.801 27.8782 -5.55112e-17
259 1 57.9109 165.686 -5.55112e-17
260 1 127.31 11.111 -5.55112e-17
261 1 185.036 14.5131 -5.55112e-17
262 1 53.0924 52.4094 -5.55112e-17
263 1 12.6852 213.77 -5.55112e-17
264 1 172.645 42.8558 -5.55112e-17
265 1 166.386 22.5508 -5.55112e-17
266 1 155.735 9.74734 -5.55112e-17
267 1 2.85782 64.521 -5.55112e-17
268 1 21.6994 35.7751 -5.55112e-17
269 1 125.838 94.89 -5.55112e-17
270 1 141.203 106.556 -5.55112e-17
271 1 13.0555 92.6644 -5.55112e-17
272 1 159.243 202.239 -5.55112e-17
273 1 40.4751 168.794 -5.55112e-17
274 2 113.193 88.3125 -5.55112e-17
275 1 63.9887 4.70319 -5.55112e-17
276 2 53.8982 32.3037 -5.55112e-17
277 2 167.416 121.911 -5.55112e-17
278 1 38.7325 101.181 -5.55112e-17
279 2 109.501 204.931 -5.55112e-17
280 1 60.3145 31.7412 -5.55112e-17
281 1 146.882 25.8556 -5.55112e-17
282 1 164.718 8.17685 -5.55112e-17
283 1 112.909 141.459 -5.55112e-17
284 1 136.614 165.571 -5.55112e-17
285 1 35.9895 12.1118 -5.55112e-17
286 2 34.02 214.927 -5.55112e-17
287 1 82.5699 135.246 -5.55112e-17
288 1 21.7859 57.6849 -5.55112e-17
289 1 71.5521 54.4103 -5.55112e-17
290 1 150.634 193.417 -5.55112e-17
291 1 158.315 144.803 -5.55112e-17
292 2 19.7077 180.843 -5.55112e-17
293 2 65.9001 194.383 -5.55112e-17
294 1 112.243 40.4018 -5.55112e-17
295 1 124.63 48.2925 -5.55112e-17
296 1 134.858 41.6569 -5.55112e-17
297 1 118.874 145.004 -5.55112e-17
298 1 104.709 198.638 -5.55112e-17
299 1 160.364 106.381 -5.55112e-17
300 2 61.8797 95.0834 -5.55112e-17
301 1 59.1165 43.6196 -5.55112e-17
302 1 126.59 193.238 -5.55112e-17
303 2 198.757 60.1248 -5.55112e-17
304 2 145.041 129.74 -5.55112e-17
305 1 86.0737 99.6582 -5.55112e-17
306 1 51.3672 73.966 -5.55112e-17
307 1 35.2706 122.597 -5.55112e-17
308 1 161.916 58.6725 -5.55112e-17
309 2 72.9635 184.203 -5.55112e-17
310 1 196.518 217.319 -5.55112e-17
311 1 79.8304 33.5186 -5.55112e-17
312 1 192.162 148.049 -5.55112e-17
313 2 147.344 66.1879 -5.55112e-17
314 1 51.9744 135.602 -5.55112e-17
315 1 111.389 150.632 -5.55112e-17
316 1 72.8368 0.788378 -5.55112e-17
317 1 13.6517 99.3102 -5.55112e-17
318 1 100.077 215.027 -5.55112e-17
319 1 51.3317 33.5217 -5.55112e-17
320 1 144.613 99.2499 -5.55112e-17
321 1 88.4982 203.859 -5.55112e-17
322 1 141.266 142.012 -5.55112e-17
323 1 188.413 108.296 -5.55112e-17
324 1 81.2055 26.4783 -5.55112e-17
325 1 162.813 139.416 -5.55112e-17
326 1 85.286 151.727 -5.55112e-17
327 2 149.281 186.23 -5.55112e-17
328 1 167.931 40.343 -5.55112e-17
329 2 47.0115 115.532 -5.55112e-17
330 1 23.8683 102.158 -5.55112e-17
331 1 174.667 175.951 -5.55112e-17
332 2 112.837 104.757 -5.55112e-17
333 1 44.6603 17.6046 -5.55112e-17
334 1 139.708 169.001 -5.55112e-17
335 1 12.5232 206.499 -5.55112e-17
336 1 212.646 106.216 -5.55112e-17
337 1 102.972 182.177 -5.55112e-17
338 1 159.59 57.3193 -5.55112e-17
339 1 109.329 217.021 -5.55112e-17
340 1 153.404 141.621 -5.55112e-17
341 1 160.591 158.733 -5.55112e-17
342 1 128.907 144.744 -5.55112e-17
343 1 127.396 28.9619 -5.55112e-17
344 1 63.6045 181.72 -5.55112e-17
345 1 60.5828 109.401 -5.55112e-17
346 1 9.53995 127.669 -5.55112e-17
347 1 92.6148 92.7468 -5.55112e-17
348 1 163.823 179.265 -5.55112e-17
349 1 193.152 75.2512 -5.55112e-17
350 2 89.4078 40.5508 -5.55112e-17
351 1 155.279 65.6212 -5.55112e-17
352 1 61.0558 182.693 -5.55112e-17
353 1 39.2115 166.41 -5.55112e-17
354 1 167.837 161.509 -5.55112e-17
355 1 58.1068 156.824 -5.55112e-17
356 1 23.9802 36.7846 -5.55112e-17
357 1 62.2411 158.735 -5.55112e-17
358 1 171.95 180.995 -5.55112e-17
359 1 157.967 159.264 -5.55112e-17
360 1 74.351 53.5574 -5.55112e-17
361 1 63.2267 167.738 -5.55112e-17
362 1 169.119 201.015 -5.55112e-17
363 1 163.516 190.018 -5.55112e-17
364 2 116.635 92.6035 -5.55112e-17
365 1 178.406 90.4348 -5.55112e-17
366 1 117.406 160.934 -5.55112e-17
367 1 174.383 7.11622 -5.55112e-17
368 1 196.92 192.885 -5.55112e-17
369 2 115.463 187.848 -5.55112e-17
370 1 15.2725 205.97 -5.55112e-17
371 1 53.7491 137.417 -5.55112e-17
372 2 0.598316 93.7007 -5.55112e-17
373 2 212.972 8.20007 -5.55112e-17
374 1 151.321 88.3304 -5.55112e-17
375 1 36.7041 112.088 -5.55112e-17
376 1 14.1246 151.655 -5.55112e-17
377 1 28.6984 213.15 -5.55112e-17
378 1 74.511 129.467 -5.55112e-17
379 1 43.0786 60.82 -5.55112e-17
380 1 177.99 150.972 -5.55112e-17
381 1 13.7477 5.7554 -5.55112e-17
382 1 54.5117 67.0436 -5.55112e-17
383 1 169.623 67.1625 -5.55112e-17
384 1 22.0961 14.0383 -5.55112e-17
385 1 191.174 77.0251 -5.55112e-17
386 2 81.7637 44.1115 -5.55112e-17
387 1 143.895 19.1292 -5.55112e-17
388 1 56.8674 44.0635 -5.55112e-17
389 1 206.613 159.267 -5.55112e-17
390 2 207.171 179.933 -5.55112e-17
391 2 36.1279 37.8267 -5.55112e-17
392 1 41.382 217.956 -5.55112e-17
393 1 0.613 33.5338 -5.55112e-17
394 1 102.476 101.368 -5.55112e-17
395 1 16.3862 27.9756 -5.55112e-17
396 1 202.788 153.725 -5.55112e-17
397 1 100.628 16.3714 -5.55112e-17
398 1 11.7037 191.101 -5.55112e-17
399 1 20.0902 59.6669 -5.55112e-17
400 1 103.265 179.737 -5.55112e-17
401 1 87.4733 176.658 -5.55112e-17
402 2 191.33 179.408 -5.55112e-17
403 1 214.765 54.1698 -5.55112e-17
404 1 36.2055 71.6394 -5.55112e-17
405 1 204.547 29.4268 -5.55112e-17
406 1 201.099 68.1165 -5.55112e-17
407 2 19.5996 62.5643 -5.55112e-17
408 1 35.2003 34.9084 -5.55112e-17
409 1 169.44 129.097 -5.55112e-17
410 1 20.7077 156.539 -5.55112e-17
411 1 152.136 160.574 -5.55112e-17
412 1 115.531 215.016 -5.55112e-17
413 1 63.0417 156.261 -5.55112e-17
414 1 38.2589 13.2092 -5.55112e-17
415 1 207.989 148.415 -5.55112e-17
416 1 72.2926 200.392 -5.55112e-17
417 1 141.437 94.0111 -5.55112e-17
418 2 184.386 7.36783 -5.55112e-17
419 1 108.61 149.93 -5.55112e-17
420 2 136.848 109.164 -5.55112e-17
421 1 87.6986 104.05 -5.55112e-17
422 1 176.227 23.6304 -5.55112e-17
423 2 158.36 40.5426 -5.55112e-17
424 1 157.063 149.248 -5.55112e-17
425 1 129.524 166.542 -5.55112e-17
426 1 133.134 113.015 -5.55112e-17
427 1 45.3169 84.2727 -5.55112e-17
428 1 71.3264 191.642 -5.55112e-17
429 1 194.415 83.4042 -5.55112e-17
430 1 215.34 60.0462 -5.55112e-17
431 1 120.156 206.418 -5.55112e-17
432 1 161.565 53.3463 -5.55112e-17
433 1 105.219 153.781 -5.55112e-17
434 1 71.5926 30.0781 -5.55112e-17
435 1 177.808 161.96 -5.55112e-17
436 1 42.1068 37.1666 -5.55112e-17
437 1 175.608 109.445 -5.55112e-17
438 2 109.68 21.558 -5.55112e-17
439 1 67.4385 208.646 -5.55112e-17
440 1 3.79054 162.003 -5.55112e-17
441 1 192.849 131.925 -5.55112e-17
442 1 50.7017 13.5138 -5.55112e-17
443 1 158.27 104.784 -5.55112e-17
444 1 218.309 101.084 -5.55112e-17
445 1 139.391 7.28372 -5.55112e-17
446 1 131.855 78.6843 -5.55112e-17
447 1 38.9671 145.065 -5.55112e-17
448 1 75.9295 7.12069 -5.55112e-17
449 1 131.254 120.472 -5.55112e-17
450 1 139.406 187.91 -5.55112e-17
451 1 171.012 47.1189 -5.55112e-17
452 1 131.306 145.205 -5.55112e-17
453 1 179.118 182.436 -5.55112e-17
454 1 160.232 211.882 -5.55112e-17
455 1 100.344 72.0024 -5.55112e-17
456 1 166.828 27.1551 -5.55112e-17
457 1 97.7918 113.636 -5.55112e-17
458 1 198.611 0.125334 -5.55112e-17
459 1 81.625 69.2268 -5.55112e-17
460 1 48.6055 102.496 -5.55112e-17
461 1 188.626 178.525 -5.55112e-17
462 1 182.009 116.133 -5.55112e-17
463 1 126.584 33.439 -5.55112e-17
464 1 154.839 194.952 -5.55112e-17
465 1 121.529 159.98 -5.55112e-17
466 1 24.1267 213.817 -5.55112e-17
467 1 17.4778 79.875 -5.55112e-17
468 1 161.458 218.447 -5.55112e-17
469 1 68.5821 77.9652 -5.55112e-17
470 1 78.0276 37.7903 -5.55112e-17
471 1 128.868 174.501 -5.55112e-17
472 1 47.9182 83.1804 -5.55112e-17
473 1 26.3997 102.642 -5.55112e-17
474 1 88.1733 101.504 -5.55112e-17
475 1 184.865 164.064 -5.55112e-17
476 2 192.721 11.8945 -5.55112e-17
477 1 53.3502 84.8192 -5.55112e-17
478 1 58.2828 125.616 -5.55112e-17
479 1 201.374 80.7008 -5.55112e-17
480 1 85.221 23.1205 -5.55112e-17
481 1 14.987 94.2986 -5.55112e-17
482 1 99.2595 159.919 -5.55112e-17
483 1 142.073 160.07 -5.55112e-17
484 2 87.2602 45.5581 -5.55112e-17
485 1 33.7336 100.608 -5.55112e-17
486 1 81.6577 16.9931 -5.55112e-17
487 1 100.555 196.625 -5.55112e-17
488 1 5.99394 121.5 -5.55112e-17
489 1 211.714 135.092 -5.55112e-17
490 1 204.834 84.1206 -5.55112e-17
491 1 197.497 121.34 -5.55112e-17
492 1 2.57886 129.043 -5.55112e-17
493 1 194.477 212.91 -5.55112e-17
494 1 211.355 38.6007 -5.55112e-17
495 1 198.437 89.738 -5.55112e-17
496 2 44.2257 189.348 -5.55112e-17
497 1 39.0631 216.797 -5.55112e-17
498 1 104.818 121.107 -5.55112e-17
499 2 136.73 216.316 -5.55112e-17
500 1 26.335 30.4112 -5.55112e-17
501 2 112.963 216.706 -5.55112e-17
502 2 123.64 143.197 -5.55112e-17
503 1 147.141 184.062 -5.55112e-17
504 1 112.875 148.461 -5.55112e-17
505 1 118.02 18.6155 -5.55112e-17
506 1 25.8694 122.156 -5.55112e-17
507 1 14.7208 130.311 -5.55112e-17
508 1 199.051 216.641 -5.55112e-17
509 2 26.994 75.7508 -5.55112e-17
510 2 146.284 133.301 -5.55112e-17
511 1 196.309 35.0489 -5.55112e-17
512 2 210.375 60.0244 -5.55112e-17
513 1 56.2149 127.346 -5.55112e-17
514 1 48.9289 18.7547 -5.55112e-17
515 1 204.529 25.1479 -5.55112e-17
516 1 184.123 205.725 -5.55112e-17
517 1 112.071 117.223 -5.55112e-17
518 2 103.229 20.2642 -5.55112e-17
519 1 12.0988 53.2334 -5.55112e-17
520 2 212.635 23.5104 -5.55112e-17
521 1 88.6317 111.354 -5.55112e-17
522 1 31.0948 30.7046 -5.55112e-17
523 1 24.7333 68.2561 -5.55112e-17
524 1 100.135 74.8634 -5.55112e-17
525 1 175.132 121.02 -5.55112e-17
526 1 191.071 64.7131 -5.55112e-17
527 1 75.382 4.66293 -5.55112e-17
528 1 168.555 28.9626 -5.55112e-17
529 1 56.5498 159.091 -5.55112e-17
530 1 99.9265 32.0776 -5.55112e-17
531 1 66.6781 197.252 -5.55112e-17
532 1 206.698 188.51 -5.55112e-17
533 1 134.178 150.771 -5.55112e-17
534 1 97.2137 144.615 -5.55112e-17
535 1 13.9755 104.968 -5.55112e-17
536 1 203.303 117.612 -5.55112e-17
537 1 201.246 166.914 -5.55112e-17
538 1 169.081 80.5248 -5.55112e-17
539 1 89.1084 211.857 -5.55112e-17
540 1 103.306 88.9247 -5.55112e-17
541 1 40.6985 59.0646 -5.55112e-17
542 1 67.3806 211.303 -5.55112e-17
543 1 147.51 151.911 -5.55112e-17
544 1 128.747 200.35 -5.55112e-17
545 1 8.52412 149.8 -5.55112e-17
546 1 179.632 41.1064 -5.55112e-17
547 1 82.3572 172.027 -5.55112e-17
548 1 99.8706 8.50599 -5.55112e-17
549 1 51.7599 76.4487 -5.55112e-17
550 2 162.607 121.332 -5.55112e-17
551 2 134.561 157.839 -5.55112e-17
552 2 93.9824 180.202 -5.55112e-17
553 1 122.189 42.7553 -5.55112e-17
554 1 73.6741 101.735 -5.55112e-17
555 2 65.5763 123.981 -5.55112e-17
556 1 148.077 21.9712 -5.55112e-17
557 1 76.4629 12.4206 -5.55112e-17
558 1 148.102 125.468 -5.55112e-17
559 1 187.751 47.3249 -5.55112e-17
560 1 131.226 51.3229 -5.55112e-17
561 1 146.463 168.628 -5.55112e-17
562 1 195.886 144.832 -5.55112e-17
563 2 168.12 113.921 -5.55112e-17
564 1 42.3807 67.2213 -5.55112e-17
565 1 60.1239 10.0659 -5.55112e-17
566 1 75.4761 34.1306 -5.55112e-17
567 1 150.334 110.868 -5.55112e-17
568 1 21.9598 114.801 -5.55112e-17
569 1 114.466 185.069 -5.55112e-17
570 1 124.617 124.341 -5.55112e-17
571 1 175.466 203.676 -5.55112e-17
572 1 61.5956 111.995 -5.55112e-17
573 1 177.536 76.1236 -5.55112e-17
574 1 41.6625 130.702 -5.55112e-17
575 1 21.6618 76.2188 -5.55112e-17
576 1 196.1 98.6732 -5.55112e-17
577 1 203.13 33.1708 -5.55112e-17
578 1 122.843 196.674 -5.55112e-17
579 1 12.9948 166.516 -5.55112e-17
580 1 102.734 138.938 -5.55112e-17
581 1 141.385 154.335 -5.55112e-17
582 1 76.3525 79.2334 -5.55112e-17
583 1 161.966 185.755 -5.55112e-17
584 2 28.7025 117.756 -5.55112e-17
585 1 48.6254 198.653 -5.55112e-17
586 1 137.712 171.067 -5.55112e-17
587 1 99.559 104.851 -5.55112e-17
588 1 17.0293 2.10541 -5.55112e-17
589 1 103.132 17.1274 -5.55112e-17
590 1 70.3492 218.792 -5.55112e-17
591 1 215.601 162.435 -5.55112e-17
592 1 55.6576 156.647 -5.55112e-17
593 1 209.445 181.696 -5.55112e-17
594 1 181.359 181.266 -5.55112e-17
595 1 82.878 39.1916 -5.55112e-17
596 1 66.2662 35.8484 -5.55112e-17
597 2 180.351 204.463 -5.55112e-17
598 1 166.982 211.465 -5.55112e-17
599 1 207.896 171.627 -5.55112e-17
600 1 105.01 10.4672 -5.55112e-17
601 1 11.9745 134.965 -5.55112e-17
602 1 97.9297 30.7773 -5.55112e-17
603 1 208.017 202.695 -5.55112e-17
604 1 120.765 1.44573 -5.55112e-17
605 2 85.7066 77.7391 -5.55112e-17
606 1 102.611 201.81 -5.55112e-17
607 2 171.949 146.782 -5.55112e-17
608 1 95.1687 76.9044 -5.55112e-17
609 1 15.8953 6.67418 -5.55112e-17
610 1 214.373 150.834 -5.55112e-17
611 1 201.576 190.797 -5.55112e-17
612 1 218.682 38.2626 -5.55112e-17
613 1 59.0398 151.193 -5.55112e-17
614 2 127.857 179.346 -5.55112e-17
615 1 105.27 18.1452 -5.55112e-17
616 1 202.168 130.533 -5.55112e-17
617 1 127.117 198.175 -5.55112e-17
618 1 201.524 212.381 -5.55112e-17
619 1 179.163 77.9905 -5.55112e-17
620 1 139.153 140.291 -5.55112e-17
621 1 197.139 93.9439 -5.55112e-17
622 1 95.3439 213.696 -5.55112e-17
623 1 0.0930307 12.2743 -5.55112e-17
624 1 23.9139 209.075 -5.55112e-17
625 1 205.065 155.076 -5.55112e-17
626 1 94.0763 191.079 -5.55112e-17
627 1 64.2063 74.0597 -5.55112e-17
628 1 34.5134 28.0534 -5.55112e-17
629 1 9.55592 95.251 -5.55112e-17
630 2 151.353 22.1273 -5.55112e-17
631 1 15.7989 86.3719 -5.55112e-17
632 1 49.1716 92.5079 -5.55112e-17
633 1 38.5709 211.431 -5.55112e-17
634 1 1.54148 147.699 -5.55112e-17
635 1 155.104 150.862 -5.55112e-17
636 1 208.545 57.8852 -5.55112e-17
637 1 201.348 58.4417 -5.55112e-17
638 1 173.055 76.3999 -5.55112e-17
639 2 203.495 78.5234 -5.55112e-17
640 1 143.195 152.674 -5.55112e-17
641 1 192.488 85.2579 -5.55112e-17
642 1 32.0753 91.7249 -5.55112e-17
643 2 182.345 42.5809 -5.55112e-17
644 1 68.0669 155.328 -5.55112e-17
645 1 106.453 196.249 -5.55112e-17
646 2 211.854 141.546 -5.55112e-17
647 1 10.7705 185.548 -5.55112e-17
648 1 132.411 103.084 -5.55112e-17
649 2 21.3085 149.286 -5.55112e-17
650 1 204.57 186.903 -5.55112e-17
651 1 218.516 113.341 -5.55112e-17
652 1 153.695 43.8854 -5.55112e-17
653 1 114.326 175.401 -5.55112e-17
654 1 23.4065 21.7471 -5.55112e-17
655 2 183.907 101.115 -5.55112e-17
656 1 28.5608 120.972 -5.55112e-17
657 2 79.2088 207.129 -5.55112e-17
658 1 54.4298 44.5219 -5.55112e-17
659 2 156.305 192.561 -5.55112e-17
660 1 102.505 55.1228 -5.55112e-17
661 1 42.3261 116.713 -5.55112e-17
662 1 81.5667 130.339 -5.55112e-17
663 1 32.277 25.8786 -5.55112e-17
664 1 144.114 16.3179 -5.55112e-17
665 1 140.273 75.3277 -5.55112e-17
666 2 48.0334 180.898 -5.55112e-17
667 1 93.2606 99.8194 -5.55112e-17
668 2 102.231 93.9889 -5.55112e-17
669 1 35.8006 17.5096 -5.55112e-17
670 1 96.3972 173.404 -5.55112e-17
671 2 53.923 175.979 -5.55112e-17
672 1 186.175 12.3403 -5.55112e-17
673 1 63.4037 19.119 -5.55112e-17
674 1 2.39558 31.6946 -5.55112e-17
675 1 128.45 23.5429 -5.55112e-17
676 1 169.604 123.875 -5.55112e-17
677 1 131.546 174.847 -5.55112e-17
678 1 137.373 30.7363 -5.55112e-17
679 2 151.962 33.5278 -5.55112e-17
680 1 203.171 41.9469 -5.55112e-17
681 2 128.95 118.79 -5.55112e-17
682 1 0.491698 48.1599 -5.55112e-17
683 1 68.5944 4.09558 -5.55112e-17
684 1 119.941 154.657 -5.55112e-17
685 1 152.818 38.813 -5.55112e-17
686 1 27.858 193.945 -5.55112e-17
687 1 118.271 192.057 -5.55112e-17
688 1 162.783 110.368 -5.55112e-17
689 2 56.191 46.9507 -5.55112e-17
690 1 70.2679 19.6084 -5.55112e-17
691 1 89.5272 66.4227 -5.55112e-17
692 1 130.811 8.06113 -5.55112e-17
693 1 48.6761 143.289 -5.55112e-17
694 1 75.7337 125.331 -5.55112e-17
695 1 145.644 38.5036 -5.55112e-17
696 1 146.589 81.1825 -5.55112e-17
697 1 139.827 201.676 -5.55112e-17
698 1 116.668 65.9772 -5.55112e-17
699 1 180.447 191.596 -5.55112e-17
700 1 205.706 209.407 -5.55112e-17
701 1 54.045 16.9312 -5.55112e-17
702 1 113.756 129.05 -5.55112e-17
703 2 188.244 144.278 -5.55112e-17
704 1 29.0838 218.53 -5.55112e-17
705 2 69.0511 112.339 -5.55112e-17
706 1 165.507 177.225 -5.55112e-17
707 1 114.068 24.8848 -5.55112e-17
708 1 84.3272 209.531 -5.55112e-17
709 1 147.205 196.547 -5.55112e-17
710 1 192.207 192.311 -5.55112e-17
711 1 111.733 93.4338 -5.55112e-17
712 1 192.104 208.187 -5.55112e-17
713 1 14.2978 136.129 -5.55112e-17
714 1 135.453 13.1118 -5.55112e-17
715 1 55.8795 199.148 -5.55112e-17
716 1 40.4775 123.544 -5.55112e-17
717 1 51.5478 107.301 -5.55112e-17
718 1 130.912 184.947 -5.55112e-17
719 2 120.003 78.6054 -5.55112e-17
720 1 99.0006 64.999 -5.55112e-17
721 1 95.5641 98.9964 -5.55112e-17
722 1 133.74 62.6957 -5.55112e-17
723 2 48.7706 45.7967 -5.55112e-17
724 1 15.8021 49.6579 -5.55112e-17
725 1 29.3839 108.999 -5.55112e-17
726 1 190.064 46.005 -5.55112e-17
727 1 148.484 205.467 -5.55112e-17
728 2 18.3628 87.5671 -5.55112e-17
729 1 133.95 164.988 -5.55112e-17
730 1 174.161 199.177 -5.55112e-17
731 1 49.4317 189.966 -5.55112e-17
732 1 218.784 9.31919 -5.55112e-17
733 1 205.478 34.4263 -5.55112e-17
734 1 4.18846 30.0434 -5.55112e-17
735 1 40.4044 23.7618 -5.55112e-17
736 2 190.319 74.3933 -5.55112e-17
737 1 81.7997 86.6233 -5.55112e-17
738 1 18.0942 167.615 -5.55112e-17
739 1 105.837 156.209 -5.55112e-17
740 1 59.6122 116.327 -5.55112e-17
741 2 188.715 78.2999 -5.55112e-17
742 1 74.3278 43.6182 -5.55112e-17
743 1 203.145 66.494 -5.55112e-17
744 2 210.41 172.947 -5.55112e-17
745 1 130.64 32.1043 -5.55112e-17
746 1 14.2248 29.829 -5.55112e-17
747 2 204.666 22.3365 -5.55112e-17
748 1 182.547 192.958 -5.55112e-17
749 1 196.059 211.024 -5.55112e-17
750 1 213.05 163.791 -5.55112e-17
751 1 59.604 58.9846 -5.55112e-17
752 1 178.231 105.662 -5.55112e-17
753 1 99.0422 150.605 -5.55112e-17
754 1 14.8151 215.535 -5.55112e-17
755 1 83.321 194.844 -5.55112e-17
756 2 103.457 195.802 -5.55112e-17
757 1 27.5738 18.7536 -5.55112e-17
758 1 135.615 146.133 -5.55112e-17
759 1 72.7389 107.352 -5.55112e-17
760 1 95.9642 40.6352 -5.55112e-17
761 1 58.0368 161.113 -5.55112e-17
762 1 43.1462 23.1337 -5.55112e-17
763 1 114.358 99.6764 -5.55112e-17
764 2 177.677 148.305 -5.55112e-17
765 1 94.2721 64.2917 -5.55112e-17
766 1 114.038 35.306 -5.55112e-17
767 1 97.3011 78.4988 -5.55112e-17
768 1 9.9536 4.47116 -5.55112e-17
769 1 107.835 75.8683 -5.55112e-17
770 2 113.622 109.845 -5.55112e-17
771 1 143.47 178.899 -5.55112e-17
772 1 102.41 28.5547 -5.55112e-17
773 1 108.9 167.254 -5.55112e-17
774 1 111.482 124.144 -5.55112e-17
775 1 68.9416 6.77785 -5.55112e-17
776 1 37.9647 10.4925 -5.55112e-17
777 1 108.07 181.863 -5.55112e-17
778 1 22.8955 18.9542 -5.55112e-17
779 1 192.091 44.4723 -5.55112e-17
780 1 3.33574 169.409 -5.55112e-17
781 1 127.464 99.7508 -5.55112e-17
782 1 175.609 49.2786 -5.55112e-17
783 1 98.422 15.356 -5.55112e-17
784 2 194.615 159.638 -5.55112e-17
785 1 110.967 165.53 -5.55112e-17
786 1 119.239 177.047 -5.55112e-17
787 1 185.55 74.7702 -5.55112e-17
788 1 177.441 45.0154 -5.55112e-17
789 2 143.177 109.07 -5.55112e-17
790 1 109.547 28.6891 -5.55112e-17
791 2 14.6428 121.952 -5.55112e-17
792 2 216.246 13.6924 -5.55112e-17
793 2 115.97 68.8227 -5.55112e-17
794 1 56.4457 188.417 -5.55112e-17
795 1 132.143 53.6904 -5.55112e-17
796 1 130.444 21.9865 -5.55112e-17
797 1 197.788 155.739 -5.55112e-17
798 2 195.851 204.214 -5.55112e-17
799 2 207.928 65.093 -5.55112e-17
800 2 55.499 217.059 -5.55112e-17
801 1 103.017 132.13 -5.55112e-17
802 1 124.733 75.3849 -5.55112e-17
803 1 182.32 68.3097 -5.55112e-17
804 2 122.614 204.985 -5.55112e-17
805 1 44.8087 106.428 -5.55112e-17
806 1 11.5993 117.106 -5.55112e-17
807 2 100.467 99.2164 -5.55112e-17
808 1 14.323 116.732 -5.55112e-17
809 2 57.4913 134.567 -5.55112e-17
810 1 129.76 197.83 -5.55112e-17
811 1 32.6601 5.8186 -5.55112e-17
812 1 131.668 34.6607 -5.55112e-17
813 2 107.803 111.026 -5.55112e-17
814 1 147.319 69.1324 -5.55112e-17
815 1 88.8625 164.315 -5.55112e-17
816 1 200.878 10.471 -5.55112e-17
817 1 108.13 214.334 -5.55112e-17
818 1 57.3611 101.62 -5.55112e-17
819 1 9.64946 136.408 -5.55112e-17
820 1 44.9229 120.44 -5.55112e-17
821 1 94.4258 151.932 -5.55112e-17
822 2 41.9293 135.926 -5.55112e-17
823 2 139.405 91.5642 -5.55112e-17
824 1 34.8624 107.982 -5.55112e-17
825 1 65.2653 15.1116 -5.55112e-17
826 1 189.708 11.9382 -5.55112e-17
827 1 192.875 107.605 -5.55112e-17
828 1 142.048 123.681 -5.55112e-17
829 1 127.164 210.71 -5.55112e-17
830 1 81.2426 127.721 -5.55112e-17
831 1 217.732 43.0945 -5.55112e-17
832 1 93.8109 87.3295 -5.55112e-17
833 1 62.0222 84.2833 -5.55112e-17
834 1 107.092 8.83754 -5.55112e-17
835 1 58.3202 217.99 -5.55112e-17
836 1 11.4225 50.7475 -5.55112e-17
837 1 6.94961 70.5365 -5.55112e-17
838 1 98.0828 178.305 -5.55112e-17
839 2 198.371 3.12054 -5.55112e-17
840 1 4.8069 202.634 -5.55112e-17
841 2 63.0649 184.872 -5.55112e-17
842 1 95.014 91.9655 -5.55112e-17
843 2 159.126 183.088 -5.55112e-17
844 1 29.0644 156.026 -5.55112e-17
845 1 71.0931 188.972 -5.55112e-17
846 1 158.88 190.879 -5.55112e-17
847 1 42.0171 141.098 -5.55112e-17
848 1 188.588 117.662 -5.55112e-17
849 1 189.194 167.406 -5.55112e-17
850 1 39.7064 129.406 -5.55112e-17
851 1 89.3824 37.0959 -5.55112e-17
852 1 11.6464 209.055 -5.55112e-17
853 1 31.9718 138.828 -5.55112e-17
854 1 171.441 84.463 -5.55112e-17
855 1 125.767 19.6783 -5.55112e-17
856 1 210.068 170.324 -5.55112e-17