ITEM: TIMESTEP
0
ITEM: NUMBER OF ATOMS
7200
ITEM: BOX BOUNDS xy xz yz pp pp pp
0.0000000000000000e+00 2.1900000000000000e+02 0.0000000000000000e+00
0.0000000000000000e+00 2.1900000000000000e+02 0.0000000000000000e+00
-3.6499999999999999e-01 3.6499999999999999e-01 0.0000000000000000e+00
ITEM: ATOMS id type x y z
1 1 112.703 55.4431 -5.55112e-17
2 1 203.239 28.0911 -5.55112e-17
3 1 1.73601 112.217 -5.55112e-17
4 1 51.2373 144.428 -5.55112e-17
5 1 179.082 136.847 -5.55112e-17
6 1 157.501 98.3804 -5.55112e-17
7 1 215.705 177.925 -5.55112e-17
8 2 137.797 119.551 -5.55112e-17
9 1 107.328 197.409 -5.55112e-17
10 2 64.3194 169.443 -5.55112e-17
11 1 171.702 94.8089 -5.55112e-17
12 1 11.2689 136.228 -5.55112e-17
13 2 118.017 201.479 -5.55112e-17
14 1 148.977 207.787 -5.55112e-17
15 1 169.378 217.056 -5.55112e-17
16 2 151.374 170.048 -5.55112e-17
17 1 151.51 39.7946 -5.55112e-17
18 2 38.0113 180.61 -5.55112e-17
19 1 181.381 96.8454 -5.55112e-17
20 1 194.232 164.821 -5.55112e-17
21 1 9.41034 5.98834 -5.55112e-17
22 2 6.22408 59.9764 -5.55112e-17
23 2 205.097 53.7673 -5.55112e-17
24 1 213.954 212.291 -5.55112e-17
25 1 77.5785 26.6414 -5.55112e-17
26 2 20.7233 191.007 -5.55112e-17
27 1 186.451 188.981 -5.55112e-17
28 2 55.5954 197.083 -5.55112e-17
29 1 202.617 137.67 -5.55112e-17
30 1 87.4444 2.35412 -5.55112e-17
31 1 61.7355 75.3949 -5.55112e-17
32 1 39.2135 47.6739 -5.55112e-17
33 1 117.524 192.686 -5.55112e-17
34 1 22.2744 79.4764 -5.55112e-17
35 1 154.479 2.6667 -5.55112e-17
36 1 83.4224 138.779 -5.55112e-17
37 2 192.199 37.2438 -5.55112e-17
38 1 11.8746 106.677 -5.55112e-17
39 1 150.545 134.669 -5.55112e-17
40 1 30.8554 70.5814 -5.55112e-17
41 1 153.533 107.662 -5.55112e-17
42 1 182.578 109.444 -5.55112e-17
43 1 96.1354 69.8367 -5.55112e-17
44 1 145.976 51.5516 -5.55112e-17
45 1 150.985 53.8753 -5.55112e-17
46 1 1.06592 44.7874 -5.55112e-17
47 1 96.9892 64.4282 -5.55112e-17
48 2 182.389 64.2733 -5.55112e-17
49 1 116.305 186.021 -5.55112e-17
50 1 170.745 192.132 -5.55112e-17
51 1 3.72589 199.739 -5.55112e-17
52 1 72.4526 59.9052 -5.55112e-17
53 1 204.517 186.039 -5.55112e-17
54 1 133.3 121.644 -5.55112e-17
55 1 15.3926 170.975 -5.55112e-17
56 1 97.9359 183.13 -5.55112e-17
57 2 182.325 91.887 -5.55112e-17
58 1 176.559 155.772 -5.55112e-17
59 1 70.0946 38.6024 -5.55112e-17
60 2 82.8376 68.369 -5.55112e-17
61 2 6.38205 53.8325 -5.55112e-17
62 1 184.132 73.2593 -5.55112e-17
63 1 199.8 164.214 -5.55112e-17
64 1 193.632 101.33 -5.55112e-17
65 1 162.991 179.33 -5.55112e-17
66 1 165.365 31.2683 -5.55112e-17
67 1 16.4714 178.094 -5.55112e-17
68 1 66.1255 13.9232 -5.55112e-17
69 1 50.4062 170.038 -5.55112e-17
70 1 84.5305 85.9166 -5.55112e-17
71 1 50.2319 8.32704 -5.55112e-17
72 1 76.5509 158.414 -5.55112e-17
73 1 0.055791 158.765 -5.55112e-17
74 1 104.025 18.8409 -5.55112e-17
75 2 74.3103 44.4254 -5.55112e-17
76 1 102.343 1.1396 -5.55112e-17
77 1 155.586 36.3718 -5.55112e-17
78 1 60.4424 93.8508 -5.55112e-17
79 2 188.957 17.6631 -5.55112e-17
80 1 184.835 142.558 -5.55112e-17
81 1 120.685 58.9953 -5.55112e-17
82 1 109.447 214.969 -5.55112e-17
83 2 96.2872 197.339 -5.55112e-17
84 1 202.259 2.43201 -5.55112e-17
85 1 58.2114 150.424 -5.55112e-17
86 1 209.867 31.1381 -5.55112e-17
87 1 114.938 138.711 -5.55112e-17
88 1 8.16149 201.846 -5.55112e-17
89 2 186.661 9.94962 -5.55112e-17
90 2 73.2241 69.7259 -5.55112e-17
91 1 92.9783 190.233 -5.55112e-17
92 2 203.922 140.289 -5.55112e-17
93 1 6.59354 10.1597 -5.55112e-17
94 2 122.423 119.944 -5.55112e-17
95 1 206.852 0.313936 -5.55112e-17
96 1 99.5991 22.9121 -5.55112e-17
97 1 41.7164 153.719 -5.55112e-17
98 1 135.876 117.229 -5.55112e-17
99 1 196.711 175.453 -5.55112e-17
100 1 55.1184 38.0355 -5.55112e-17
101 1 42.099 209.117 -5.55112e-17
102 1 103.635 21.4482 -5.55112e-17
103 1 202.089 179.815 -5.55112e-17
104 1 154.858 112.551 -5.55112e-17
105 1 52.1371 27.8312 -5.55112e-17
106 1 194.599 112.118 -5.55112e-17
107 2 50.5172 5.33027 -5.55112e-17
108 1 151.71 185.365 -5.55112e-17
109 1 140.784 61.9221 -5.55112e-17
110 1 144.723 133.053 -5.55112e-17
111 1 199.402 214.916 -5.55112e-17
112 1 146.91 70.369 -5.55112e-17
113 1 105.463 6.0761 -5.55112e-17
114 1 77.9086 160.761 -5.55112e-17
115 1 77.2895 99.6294 -5.55112e-17
116 2 31.1397 106.479 -5.55112e-17
117 1 186.113 144.659 -5.55112e-17
118 1 97.9922 40.6071 -5.55112e-17
119 2 95.2087 154.588 -5.55112e-17
120 1 32.7739 100.763 -5.55112e-17
121 1 23.2726 6.85244 -5.55112e-17
122 1 66.5878 128.414 -5.55112e-17
123 1 123.119 164.903 -5.55112e-17
124 1 160.323 99.8388 -5.55112e-17
125 1 154.792 132.932 -5.55112e-17
126 1 201.643 160.227 -5.55112e-17
127 1 3.9963 55.3195 -5.55112e-17
128 1 147.565 87.1868 -5.55112e-17
129 1 211.094 153.276 -5.55112e-17
130 1 129.53 92.2483 -5.55112e-17
131 1 184.3 29.8122 -5.55112e-17
132 2 91.0571 172.08 -5.55112e-17
133 1 7.88035 130.888 -5.55112e-17
134 1 101.763 180.892 -5.55112e-17
135 1 18.4448 152.136 -5.55112e-17
136 1 76.1024 116.632 -5.55112e-17
137 1 87.9873 203.398 -5.55112e-17
138 1 169.383 72.6274 -5.55112e-17
139 1 18.2945 71.9411 -5.55112e-17
140 2 157.406 1.93693 -5.55112e-17
141 1 99.9045 190.655 -5.55112e-17
142 2 50.3469 185.861 -5.55112e-17
143 1 61.2383 79.6361 -5.55112e-17
144 2 52.279 108.683 -5.55112e-17
145 1 171.717 101.535 -5.55112e-17
146 1 93.0307 176.839 -5.55112e-17
147 1 121.925 18.5758 -5.55112e-17
148 1 53.439 45.4699 -5.55112e-17
149 1 21.3217 193.905 -5.55112e-17
150 1 183.345 212.882 -5.55112e-17
151 1 48.7199 193.372 -5.55112e-17
152 1 198.648 66.318 -5.55112e-17
153 2 66.0854 174.749 -5.55112e-17
154 1 217.522 64.0262 -5.55112e-17
155 1 86.5229 217.391 -5.55112e-17
156 2 14.6525 126.393 -5.55112e-17
157 1 3.16488 96.3235 -5.55112e-17
158 1 132.624 44.4447 -5.55112e-17
159 1 116.481 143.237 -5.55112e-17
160 1 68.8692 56.4361 -5.55112e-17
161 1 81.7439 163.481 -5.55112e-17
162 1 215.95 73.8781 -5.55112e-17
163 1 209.37 68.4059 -5.55112e-17
164 1 213.672 52.9653 -5.55112e-17
165 1 15.5898 210.034 -5.55112e-17
166 2 146.354 92.0052 -5.55112e-17
167 1 64.2906 145.518 -5.55112e-17
168 1 216.241 9.99576 -5.55112e-17
169 1 200.545 74.8445 -5.55112e-17
170 1 48.4084 46.2948 -5.55112e-17
171 1 0.843063 4.98326 -5.55112e-17
172 1 178.418 32.7757 -5.55112e-17
173 1 123.628 181.983 -5.55112e-17
174 1 168.232 204.145 -5.55112e-17
175 2 188.287 109.872 -5.55112e-17
176 1 169.855 202.424 -5.55112e-17
177 2 108.734 29.8852 -5.55112e-17
178 1 159.182 82.366 -5.55112e-17
179 1 207.911 65.9016 -5.55112e-17
180 1 16.2798 153.291 -5.55112e-17
181 1 81.7319 117.786 -5.55112e-17
182 2 196.372 61.2669 -5.55112e-17
183 1 32.7119 188.735 -5.55112e-17
184 1 30.9348 9.21013 -5.55112e-17
185 2 191.412 11.7752 -5.55112e-17
186 2 118.872 6.77202 -5.55112e-17
187 1 172.252 200.958 -5.55112e-17
188 1 187.656 186.636 -5.55112e-17
189 1 116.318 61.4421 -5.55112e-17
190 2 127.405 190.421 -5.55112e-17
191 1 50.9336 84.8372 -5.55112e-17
192 2 141.545 139.283 -5.55112e-17
193 2 2.93645 157.568 -5.55112e-17
194 1 211.9 68.656 -5.55112e-17
195 1 176.217 153.218 -5.55112e-17
196 1 105.423 212.777 -5.55112e-17
197 1 120.888 90.4281 -5.55112e-17
198 2 70.7502 31.7142 -5.55112e-17
199 1 86.3028 208.142 -5.55112e-17
200 1 92.6703 2.61203 -5.55112e-17
201 2 88.5676 59.6178 -5.55112e-17
202 1 114.213 167.796 -5.55112e-17
203 1 59.1219 105.53 -5.55112e-17
204 1 109.54 196.248 -5.55112e-17
205 2 188.952 6.98234 -5.55112e-17
206 1 102.753 190.55 -5.55112e-17
207 1 100.524 164.477 -5.55112e-17
208 1 199.402 110.973 -5.55112e-17
209 1 108.355 52.3842 -5.55112e-17
210 1 180.531 167.982 -5.55112e-17
211 2 217.086 40.2278 -5.55112e-17
212 1 66.38 43.9697 -5.55112e-17
213 1 208.213 77.8862 -5.55112e-17
214 1 1.1312 65.1001 -5.55112e-17
215 1 177.285 19.4913 -5.55112e-17
216 1 157.204 43.0161 -5.55112e-17
217 1 68.8815 216.376 -5.55112e-17
218 2 180.968 147.654 -5.55112e-17
219 1 158.956 176.379 -5.55112e-17
220 2 36.8313 112.418 -5.55112e-17
221 1 218.001 75.4258 -5.55112e-17
222 1 16.7201 52.4947 -5.55112e-17
223 1 91.8582 210.578 -5.55112e-17
224 2 30.8932 6.03407 -5.55112e-17
225 1 80.6629 156.89 -5.55112e-17
226 1 6.66784 150.817 -5.55112e-17
227 2 37.1541 164.305 -5.55112e-17
228 1 85.1052 190.566 -5.55112e-17
229 1 4.45469 159.985 -5.55112e-17
230 1 201.502 125.005 -5.55112e-17
231 1 127.867 103.273 -5.55112e-17
232 1 58.3763 63.982 -5.55112e-17
233 1 170.88 212.529 -5.55112e-17
234 1 152.629 48.6599 -5.55112e-17
235 1 8.1353 64.6977 -5.55112e-17
236 1 114.803 113.235 -5.55112e-17
237 1 0.696217 33.3301 -5.55112e-17
238 1 87.1127 105.301 -5.55112e-17
239 2 47.1617 147.786 -5.55112e-17
240 1 183.453 57.191 -5.55112e-17
241 2 70.4939 133.677 -5.55112e-17
242 2 38.5535 2.75513 -5.55112e-17
243 2 116.806 206.834 -5.55112e-17
244 1 67.5471 100.226 -5.55112e-17
245 1 64.315 164.121 -5.55112e-17
246 1 154.717 157.486 -5.55112e-17
247 1 154.414 77.3264 -5.55112e-17
248 1 116.523 89.667 -5.55112e-17
249 1 179.696 28.9023 -5.55112e-17
250 2 106.583 35.188 -5.55112e-17
251 1 97.2074 2.26259 -5.55112e-17
252 1 41.6084 36.9029 -5.55112e-17
253 1 88.0418 213.208 -5.55112e-17
254 2 153.151 159.78 -5.55112e-17
255 1 33.8124 17.6563 -5.55112e-17
256 1 179.158 17.4366 -5.55112e-17
257 1 39.3219 79.8034 -5.55112e-17
258 2 85.0697 45.2527 -5.55112e-17
259 1 202.625 35.2499 -5.55112e-17
260 1 23.8189 134.339 -5.55112e-17
261 1 150.886 125.463 -5.55112e-17
262 1 178.506 111.853 -5.55112e-17
263 1 68.8658 26.2109 -5.55112e-17
264 1 46.4545 181.532 -5.55112e-17
265 1 142.457 190.795 -5.55112e-17
266 1 154.165 82.725 -5.55112e-17
267 1 172.587 146.671 -5.55112e-17
268 1 24.7036 26.9071 -5.55112e-17
269 1 93.7286 102.326 -5.55112e-17
270 1 6.50921 84.1102 -5.55112e-17
271 1 25.3099 122.902 -5.55112e-17
272 1 192.658 148.903 -5.55112e-17
273 1 74.14 126.866 -5.55112e-17
274 2 187.365 101.866 -5.55112e-17
275 1 60.7228 65.0018 -5.55112e-17
276 2 177.036 207.743 -5.55112e-17
277 2 161.098 40.4225 -5.55112e-17
278 1 158.996 12.8572 -5.55112e-17
279 2 156.435 26.9975 -5.55112e-17
280 1 98.7502 18.1186 -5.55112e-17
281 1 192.266 177.519 -5.55112e-17
282 1 4.62162 35.7474 -5.55112e-17
283 1 196.923 171.074 -5.55112e-17
284 1 99.7063 166.763 -5.55112e-17
285 1 149.549 14.1543 -5.55112e-17
286 2 94.7139 200.813 -5.55112e-17
287 1 47.9885 118.789 -5.55112e-17
288 1 57.2356 209.544 -5.55112e-17
289 1 84.9757 8.64873 -5.55112e-17
290 1 178.448 180.128 -5.55112e-17
291 1 101.572 62.4204 -5.55112e-17
292 2 3.81707 133.659 -5.55112e-17
293 2 60.4129 117.334 -5.55112e-17
294 1 194.129 175.264 -5.55112e-17
295 1 102.48 41.5125 -5.55112e-17
296 1 40.9425 4.91754 -5.55112e-17
297 1 143.622 179.525 -5.55112e-17
298 1 139.243 185.515 -5.55112e-17
299 1 120.384 149.406 -5.55112e-17
300 2 154.95 105.029 -5.55112e-17
301 1 168.475 85.3933 -5.55112e-17
302 1 111.645 145.138 -5.55112e-17
303 2 88.556 4.93561 -5.55112e-17
304 2 1.1595 70.4726 -5.55112e-17
305 1 119.855 214.286 -5.55112e-17
306 1 179.303 63.1289 -5.55112e-17
307 1 199.507 180.272 -5.55112e-17
308 1 137.753 74.8448 -5.55112e-17
309 2 74.4202 141.627 -5.55112e-17
310 1 200.06 205.206 -5.55112e-17
311 1 206.562 131.095 -5.55112e-17
312 1 77.7606 149.232 -5.55112e-17
313 2 162.832 2.75384 -5.55112e-17
314 1 153.219 208.159 -5.55112e-17
315 1 203.363 106.666 -5.55112e-17
316 1 128.411 8.71818 -5.55112e-17
317 1 111.165 121.267 -5.55112e-17
318 1 117.483 198.837 -5.55112e-17
319 1 71.3442 163.131 -5.55112e-17
320 1 190.802 218.481 -5.55112e-17
321 1 45.4379 42.9342 -5.55112e-17
322 1 49.1291 121.172 -5.55112e-17
323 1 72.6254 201.832 -5.55112e-17
324 1 105.421 114.999 -5.55112e-17
325 1 82.9992 131.332 -5.55112e-17
326 1 27.9882 29.9526 -5.55112e-17
327 2 162.606 63.4972 -5.55112e-17
328 1 48.2363 68.0436 -5.55112e-17
329 2 27.9096 94.8581 -5.55112e-17
330 1 110.071 36.1398 -5.55112e-17
331 1 149.664 75.0254 -5.55112e-17
332 2 130.775 30.058 -5.55112e-17
333 1 56.7654 155.534 -5.55112e-17
334 1 134.286 58.5766 -5.55112e-17
335 1 209.8 123.698 -5.55112e-17
336 1 47.2101 116.689 -5.55112e-17
337 1 70.321 193.213 -5.55112e-17
338 1 172.122 57.6294 -5.55112e-17
339 1 77.1089 180.609 -5.55112e-17
340 1 34.9653 51.808 -5.55112e-17
341 1 6.02731 44.985 -5.55112e-17
342 1 132.585 109.715 -5.55112e-17
343 1 126.44 64.592 -5.55112e-17
344 1 87.9185 40.4337 -5.55112e-17
345 1 115.264 174.947 -5.55112e-17
346 1 181.581 52.08 -5.55112e-17
347 1 26.5203 92.1588 -5.55112e-17
348 1 130.573 35.3459 -5.55112e-17
349 1 51.4178 100.393 -5.55112e-17
350 2 171.604 183.599 -5.55112e-17
351 1 191.862 216.167 -5.55112e-17
352 1 42.0747 206.462 -5.55112e-17
353 1 73.5279 102.64 -5.55112e-17
354 1 182.255 199.934 -5.55112e-17
355 1 140.332 3.71864 -5.55112e-17
356 1 167.904 154.651 -5.55112e-17
357 1 97.3725 211.8 -5.55112e-17
358 1 89.2286 10.1442 -5.55112e-17
359 1 110.557 108.235 -5.55112e-17
360 1 209.214 138.869 -5.55112e-17
361 1 152.391 1.39643 -5.55112e-17
362 1 7.46102 0.711067 -5.55112e-17
363 1 210.118 171.4 -5.55112e-17
364 2 201.112 67.9416 -5.55112e-17
365 1 69.0423 77.0515 -5.55112e-17
366 1 131.082 121.399 -5.55112e-17
367 1 40.0416 102.871 -5.55112e-17
368 1 191.485 88.5668 -5.55112e-17
369 2 67.5323 91.6481 -5.55112e-17
370 1 151.776 20.361 -5.55112e-17
371 1 71.5408 169.029 -5.55112e-17
372 2 127.973 49.6971 -5.55112e-17
373 2 143.534 126.11 -5.55112e-17
374 1 154.732 214.145 -5.55112e-17
375 1 57.6944 44.25 -5.55112e-17
376 1 43.7748 138.681 -5.55112e-17
377 1 132.391 140.193 -5.55112e-17
378 1 138.998 57.1028 -5.55112e-17
379 1 0.321421 27.5268 -5.55112e-17
380 1 161.206 177.369 -5.55112e-17
381 1 171.734 7.82656 -5.55112e-17
382 1 113.196 99.1422 -5.55112e-17
383 1 97.1507 167.318 -5.55112e-17
384 1 178.222 118.909 -5.55112e-17
385 1 33.4566 117.751 -5.55112e-17
386 2 127.309 55.1823 -5.55112e-17
387 1 44.3624 204.904 -5.55112e-17
388 1 100.28 122.146 -5.55112e-17
389 1 21.3659 37.0042 -5.55112e-17
390 2 181.071 15.142 -5.55112e-17
391 2 187.133 172.508 -5.55112e-17
392 1 111.898 26.7016 -5.55112e-17
393 1 100.327 127.733 -5.55112e-17
394 1 108.941 154.591 -5.55112e-17
395 1 44.4523 101.619 -5.55112e-17
396 1 104.273 200.584 -5.55112e-17
397 1 130.091 17.6082 -5.55112e-17
398 1 151.433 67.8776 -5.55112e-17
399 1 37.3248 206.494 -5.55112e-17
400 1 83.7102 125.973 -5.55112e-17
401 1 89.894 211.776 -5.55112e-17
402 2 64.3729 84.1368 -5.55112e-17
403 1 58.8705 141.785 -5.55112e-17
404 1 214.865 193.135 -5.55112e-17
405 1 145.49 181.604 -5.55112e-17
406 1 53.0337 121.123 -5.55112e-17
407 2 210.634 216.483 -5.55112e-17
408 1 122.41 214.282 -5.55112e-17
409 1 65.0029 159.397 -5.55112e-17
410 1 8.42266 192.585 -5.55112e-17
411 1 17.357 211.662 -5.55112e-17
412 1 122.065 79.8526 -5.55112e-17
413 1 72.9079 144.234 -5.55112e-17
414 1 29.9289 60.4364 -5.55112e-17
415 1 177.933 149.19 -5.55112e-17
416 1 52.5731 68.2468 -5.55112e-17
417 1 142.976 155.055 -5.55112e-17
418 2 63.7479 55.1558 -5.55112e-17
419 1 93.6437 84.2112 -5.55112e-17
420 2 189.192 58.5084 -5.55112e-17
421 1 147.735 97.0007 -5.55112e-17
422 1 170.295 186.243 -5.55112e-17
423 2 50.9919 123.195 -5.55112e-17
424 1 159.852 20.3131 -5.55112e-17
425 1 112.385 11.9148 -5.55112e-17
426 1 4.24961 203.899 -5.55112e-17
427 1 163.889 20.0207 -5.55112e-17
428 1 111.105 183.006 -5.55112e-17
429 1 99.7598 44.5899 -5.55112e-17
430 1 197.906 41.5522 -5.55112e-17
431 1 20.542 43.5841 -5.55112e-17
432 1 120.826 72.742 -5.55112e-17
433 1 155.29 178.758 -5.55112e-17
434 1 27.6032 114.195 -5.55112e-17
435 1 180.82 175.278 -5.55112e-17
436 1 121.806 53.9881 -5.55112e-17
437 1 14.4201 107.427 -5.55112e-17
438 2 90.728 97.1696 -5.55112e-17
439 1 76.4204 87.7405 -5.55112e-17
440 1 51.7742 148.374 -5.55112e-17
441 1 124.139 112.569 -5.55112e-17
442 1 163.887 85.6949 -5.55112e-17
443 1 71.3441 136.985 -5.55112e-17
444 1 66.7092 171.509 -5.55112e-17
445 1 89.3667 198.915 -5.55112e-17
446 1 37.5398 134.297 -5.55112e-17
447 1 60.8063 35.3112 -5.55112e-17
448 1 138.717 144.607 -5.55112e-17
449 1 97.3512 81.7685 -5.55112e-17
450 1 100.64 91.0088 -5.55112e-17
451 1 177.766 116.382 -5.55112e-17
452 1 121.102 87.5515 -5.55112e-17
453 1 100.352 182.967 -5.55112e-17
454 1 46.4925 100.146 -5.55112e-17
455 1 19.4963 52.035 -5.55112e-17
456 1 56.8372 171.048 -5.55112e-17
457 1 171.161 53.4456 -5.55112e-17
458 1 181.399 157.881 -5.55112e-17
459 1 167.69 116.764 -5.55112e-17
460 1 91.8667 93.816 -5.55112e-17
461 1 61.8996 91.5838 -5.55112e-17
462 1 190.029 1.64626 -5.55112e-17
463 1 65.81 150.353 -5.55112e-17
464 1 127.944 133.121 -5.55112e-17
465 1 197.112 218.884 -5.55112e-17
466 1 179.518 212.516 -5.55112e-17
467 1 11.2953 179.34 -5.55112e-17
468 1 8.75388 97.1095 -5.55112e-17
469 1 117.918 16.5444 -5.55112e-17
470 1 49.7959 27.0085 -5.55112e-17
471 1 171.109 207.774 -5.55112e-17
472 1 159.555 120.047 -5.55112e-17
473 1 29.1038 169.684 -5.55112e-17
474 1 117.08 196.212 -5.55112e-17
475 1 58.6594 212.034 -5.55112e-17
476 2 44.4204 21.3338 -5.55112e-17
477 1 198.268 196.437 -5.55112e-17
478 1 175.826 121.093 -5.55112e-17
479 1 119.932 77.8345 -5.55112e-17
480 1 78.2043 89.3234 -5.55112e-17
481 1 17.7115 180.455 -5.55112e-17
482 1 73.6889 173.89 -5.55112e-17
483 1 80.6169 170.699 -5.55112e-17
484 2 141.498 109.565 -5.55112e-17
485 1 199.338 217.418 -5.55112e-17
486 1 14.6228 37.918 -5.55112e-17
487 1 63.1111 93.9631 -5.55112e-17
488 1 42.2725 96.9892 -5.55112e-17
489 1 137.705 11.6369 -5.55112e-17
490 1 27.296 177.536 -5.55112e-17
491 1 163.844 96.1373 -5.55112e-17
492 1 99.9749 105.343 -5.55112e-17
493 1 104.908 146.378 -5.55112e-17
494 1 125.695 150.618 -5.55112e-17
495 1 185.388 49.8469 -5.55112e-17
496 2 211.224 168.712 -5.55112e-17
497 1 184.953 177.588 -5.55112e-17
498 1 215.885 190.46 -5.55112e-17
499 2 139.876 70.3317 -5.55112e-17
500 1 37.4642 131.122 -5.55112e-17
501 2 214.261 200.724 -5.55112e-17
502 2 44.1421 196.217 -5.55112e-17
503 1 120.281 106.805 -5.55112e-17
504 1 175.194 210.758 -5.55112e-17
505 1 29.3138 20.1923 -5.55112e-17
506 1 42.7982 175.488 -5.55112e-17
507 1 202.733 183.919 -5.55112e-17
508 1 86.5123 14.3009 -5.55112e-17
509 2 105.689 105.877 -5.55112e-17
510 2 214.734 144.03 -5.55112e-17
511 1 111.616 187.446 -5.55112e-17
512 2 110.422 116.105 -5.55112e-17
513 1 26.7569 65.3497 -5.55112e-17
514 1 182.144 41.8843 -5.55112e-17
515 1 154.157 57.2483 -5.55112e-17
516 1 204.267 0.867748 -5.55112e-17
517 1 124.536 190.373 -5.55112e-17
518 2 169.991 92.1944 -5.55112e-17
519 1 65.1891 65.4296 -5.55112e-17
520 2 216.21 15.4113 -5.55112e-17
521 1 49.4983 54.3152 -5.55112e-17
522 1 87.2903 115.314 -5.55112e-17
523 1 20.6362 213.949 -5.55112e-17
524 1 199.086 126.378 -5.55112e-17
525 1 56.1902 2.36722 -5.55112e-17
526 1 177.697 48.666 -5.55112e-17
527 1 131.381 37.9366 -5.55112e-17
528 1 78.3118 105.975 -5.55112e-17
529 1 101.694 102.777 -5.55112e-17
530 1 101.823 176.256 -5.55112e-17
531 1 41.6675 170.498 -5.55112e-17
532 1 47.3589 185.43 -5.55112e-17
533 1 150.405 96.2068 -5.55112e-17
534 1 211.608 17.5946 -5.55112e-17
535 1 165.143 43.4412 -5.55112e-17
536 1 114.534 43.9883 -5.55112e-17
537 1 80.8042 11.3713 -5.55112e-17
538 1 99.4914 210.092 -5.55112e-17
539 1 213.89 55.4805 -5.55112e-17
540 1 89.9766 153.908 -5.55112e-17
541 1 15.7819 23.9634 -5.55112e-17
542 1 154.888 167.023 -5.55112e-17
543 1 105.92 217.652 -5.55112e-17
544 1 176.36 34.6046 -5.55112e-17
545 1 16.9972 202.436 -5.55112e-17
546 1 164.888 108.73 -5.55112e-17
547 1 36.5423 0.680559 -5.55112e-17
548 1 1.62317 160.775 -5.55112e-17
549 1 75.8817 52.5075 -5.55112e-17
550 2 154.863 65.3436 -5.55112e-17
551 2 53.2084 79.204 -5.55112e-17
552 2 145.262 88.9692 -5.55112e-17
553 1 115.762 49.1795 -5.55112e-17
554 1 62.5638 20.2632 -5.55112e-17
555 2 76.8869 72.967 -5.55112e-17
556 1 3.19968 33.3791 -5.55112e-17
557 1 84.6584 123.619 -5.55112e-17
558 1 186.349 107.985 -5.55112e-17
559 1 56.1011 218.497 -5.55112e-17
560 1 184.836 76.9316 -5.55112e-17
561 1 49.2346 165.05 -5.55112e-17
562 1 193.506 87.5319 -5.55112e-17
563 2 183.113 150.702 -5.55112e-17
564 1 17.9967 185.088 -5.55112e-17
565 1 2.4561 13.1202 -5.55112e-17
566 1 189.221 209.751 -5.55112e-17
567 1 128.487 209.428 -5.55112e-17
568 1 182.067 3.69538 -5.55112e-17
569 1 36.84 84.1071 -5.55112e-17
570 1 149.065 55.6082 -5.55112e-17
571 1 121.491 128.857 -5.55112e-17
572 1 191.713 71.7031 -5.55112e-17
573 1 21.9782 74.1131 -5.55112e-17
574 1 12.5138 121.568 -5.55112e-17
575 1 205.555 18.4398 -5.55112e-17
576 1 162.717 91.7504 -5.55112e-17
577 1 98.2942 79.3276 -5.55112e-17
578 1 169.021 194.058 -5.55112e-17
579 1 51.3703 32.4633 -5.55112e-17
580 1 155.891 59.4008 -5.55112e-17
581 1 180.176 141.252 -5.55112e-17
582 1 158.924 55.4978 -5.55112e-17
583 1 119.807 112.709 -5.55112e-17
584 2 13.7585 20.1094 -5.55112e-17
585 1 89.1785 94.6283 -5.55112e-17
586 1 104.349 198.155 -5.55112e-17
587 1 111.976 166.518 -5.55112e-17
588 1 194.758 140.399 -5.55112e-17
589 1 116.154 140.682 -5.55112e-17
590 1 39.4247 13.1892 -5.55112e-17
591 1 115.772 108.207 -5.55112e-17
592 1 52.6283 8.03212 -5.55112e-17
593 1 104.878 46.1654 -5.55112e-17
594 1 203.148 114.469 -5.55112e-17
595 1 35.3279 151.953 -5.55112e-17
596 1 87.5774 8.3951 -5.55112e-17
597 2 39.9713 175.653 -5.55112e-17
598 1 188.87 4.08803 -5.55112e-17
599 1 26.0601 166.539 -5.55112e-17
600 1 176.821 17.0743 -5.55112e-17
601 1 1.59992 168.721 -5.55112e-17
602 1 169.528 37.9878 -5.55112e-17
603 1 175.998 128.266 -5.55112e-17
604 1 125.87 176.27 -5.55112e-17
605 2 97.1689 113.324 -5.55112e-17
606 1 120.244 4.54804 -5.55112e-17
607 2 32.8567 72.5194 -5.55112e-17
608 1 190.489 142.229 -5.55112e-17
609 1 153.391 92.5768 -5.55112e-17
610 1 95.6135 159.632 -5.55112e-17
611 1 99.6404 152.403 -5.55112e-17
612 1 6.40753 217.058 -5.55112e-17
613 1 86.7728 177.246 -5.55112e-17
614 2 19.1168 5.40049 -5.55112e-17
615 1 96.0507 50.9211 -5.55112e-17
616 1 179.951 105.098 -5.55112e-17
617 1 110.316 38.858 -5.55112e-17
618 1 159.001 162.762 -5.55112e-17
619 1 151.55 31.26 -5.55112e-17
620 1 84.268 198.562 -5.55112e-17
621 1 138.937 23.0471 -5.55112e-17
622 1 13.5967 208.612 -5.55112e-17
623 1 6.70659 30.5297 -5.55112e-17
624 1 35.1331 173.752 -5.55112e-17
625 1 42.4634 214.187 -5.55112e-17
626 1 67.584 8.69931 -5.55112e-17
627 1 56.9627 167.992 -5.55112e-17
628 1 24.0772 78.2862 -5.55112e-17
629 1 135.73 42.2923 -5.55112e-17
630 2 135.529 140.233 -5.55112e-17
631 1 205.219 113.175 -5.55112e-17
632 1 142.927 3.49848 -5.55112e-17
633 1 2.32616 0.883913 -5.55112e-17
634 1 164.845 130.413 -5.55112e-17
635 1 207.52 155.569 -5.55112e-17
636 1 134.735 204.564 -5.55112e-17
637 1 214.292 47.9743 -5.55112e-17
638 1 6.14591 166.012 -5.55112e-17
639 2 99.9102 59.9958 -5.55112e-17
640 1 119.865 33.9029 -5.55112e-17
641 1 108.072 37.585 -5.55112e-17
642 1 109.673 8.15344 -5.55112e-17
643 2 13.0922 40.483 -5.55112e-17
644 1 35.3375 208.033 -5.55112e-17
645 1 19.1607 123.075 -5.55112e-17
646 2 3.0977 217 -5.55112e-17
647 1 22.3899 21.9779 -5.55112e-17
648 1 53.0036 21.7048 -5.55112e-17
649 2 176.02 166.094 -5.55112e-17
650 1 51.154 64.0203 -5.55112e-17
651 1 40.3038 53.0013 -5.55112e-17
652 1 156.12 159.907 -5.55112e-17
653 1 213.509 91.5969 -5.55112e-17
654 1 198.466 209.591 -5.55112e-17
655 2 108.945 119.437 -5.55112e-17
656 1 95.6424 41.2905 -5.55112e-17
657 2 92.9122 38.2317 -5.55112e-17
658 1 156.871 78.4654 -5.55112e-17
659 2 196.32 83.9251 -5.55112e-17
660 1 121.024 133.132 -5.55112e-17
661 1 136.174 164.834 -5.55112e-17
662 1 178.417 194.786 -5.55112e-17
663 1 152.741 63.355 -5.55112e-17
664 1 213.955 138.492 -5.55112e-17
665 1 102.02 157.489 -5.55112e-17
666 2 109.324 68.9262 -5.55112e-17
667 1 65.7412 1.01718 -5.55112e-17
668 2 206.137 115.926 -5.55112e-17
669 1 131.548 58.7526 -5.55112e-17
670 1 32.4279 59.9302 -5.55112e-17
671 2 28.9813 2.98979 -5.55112e-17
672 1 4.32359 83.2188 -5.55112e-17
673 1 184.57 35.6513 -5.55112e-17
674 1 58.9466 110.194 -5.55112e-17
675 1 213.564 217.064 -5.55112e-17
676 1 184.344 172.504 -5.55112e-17
677 1 171.374 169.149 -5.55112e-17
678 1 128.17 202.61 -5.55112e-17
679 2 95.8567 216.54 -5.55112e-17
680 1 65.8887 25.8685 -5.55112e-17
681 2 59.3601 206.77 -5.55112e-17
682 1 8.44374 142.568 -5.55112e-17
683 1 110.532 212.483 -5.55112e-17
684 1 207.371 32.1893 -5.55112e-17
685 1 136.151 56.4505 -5.55112e-17
686 1 70.1703 139.102 -5.55112e-17
687 1 130.259 185.642 -5.55112e-17
688 1 186.78 52.1629 -5.55112e-17
689 2 38.8809 107.504 -5.55112e-17
690 1 106.771 121.52 -5.55112e-17
691 1 21.5227 167.958 -5.55112e-17
692 1 4.48844 191.841 -5.55112e-17
693 1 18.979 193.329 -5.55112e-17
694 1 213.597 135.777 -5.55112e-17
695 1 146.709 28.7028 -5.55112e-17
696 1 62.178 167.804 -5.55112e-17
697 1 196.165 97.9673 -5.55112e-17
698 1 58.0354 121.52 -5.55112e-17
699 1 162.491 31.466 -5.55112e-17
700 1 39.563 50.608 -5.55112e-17
701 1 217.168 116.84 -5.55112e-17
702 1 164.259 145.371 -5.55112e-17
703 2 13.233 87.7594 -5.55112e-17
704 1 113.177 22.3296 -5.55112e-17
705 2 55.6894 186.106 -5.55112e-17
706 1 205.488 78.7726 -5.55112e-17
707 1 95.5946 138.295 -5.55112e-17
708 1 101.964 152.819 -5.55112e-17
709 1 0.556988 47.1964 -5.55112e-17
710 1 16.2427 67.8052 -5.55112e-17
711 1 33.8016 149.922 -5.55112e-17
712 1 122.882 49.0235 -5.55112e-17
713 1 153.97 120.782 -5.55112e-17
714 1 116.283 14.3713 -5.55112e-17
715 1 127.641 185.625 -5.55112e-17
716 1 68.1487 182.287 -5.55112e-17
717 1 30.4971 174.374 -5.55112e-17
718 1 50.0792 116.137 -5.55112e-17
719 2 71.6973 55.3798 -5.55112e-17
720 1 67.2773 83.431 -5.55112e-17
721 1 21.0225 113.935 -5.55112e-17
722 1 68.2392 106.669 -5.55112e-17
723 2 72.7528 36.9725 -5.55112e-17
724 1 15.8803 173.482 -5.55112e-17
725 1 105.475 174.178 -5.55112e-17
726 1 197.539 56.0684 -5.55112e-17
727 1 105.075 161.384 -5.55112e-17
728 2 211.667 46.1539 -5.55112e-17
729 1 39.546 142.782 -5.55112e-17
730 1 113.769 133.928 -5.55112e-17
731 1 215.295 64.8036 -5.55112e-17
732 1 167.53 77.0661 -5.55112e-17
733 1 181.999 46.2276 -5.55112e-17
734 1 202.822 70.8003 -5.55112e-17
735 1 193.38 182.299 -5.55112e-17
736 2 11.2462 8.3851 -5.55112e-17
737 1 107.725 185.478 -5.55112e-17
738 1 206.876 139.692 -5.55112e-17
739 1 197.928 204.107 -5.55112e-17
740 1 217.822 134.751 -5.55112e-17
741 2 195.239 95.3866 -5.55112e-17
742 1 192.409 202.212 -5.55112e-17
743 1 91.4455 194.512 -5.55112e-17
744 2 107.108 47.8391 -5.55112e-17
745 1 131.747 152.989 -5.55112e-17
746 1 83.0342 191.819 -5.55112e-17
747 2 27.7531 102.022 -5.55112e-17
748 1 121.915 7.03679 -5.55112e-17
749 1 66.0047 204.17 -5.55112e-17
750 1 38.0765 144.712 -5.55112e-17
751 1 59.779 86.7693 -5.55112e-17
752 1 163.593 183.878 -5.55112e-17
753 1 79.4702 216.663 -5.55112e-17
754 1 40.9275 17.5998 -5.55112e-17
755 1 202.854 79.6127 -5.55112e-17
756 2 131.695 192.736 -5.55112e-17
757 1 208.435 153.013 -5.55112e-17
758 1 96.2252 118.935 -5.55112e-17
759 1 81.9004 168.385 -5.55112e-17
760 1 111.016 177.663 -5.55112e-17
761 1 78.2629 80.6543 -5.55112e-17
762 1 39.7627 38.5014 -5.55112e-17
763 1 23.2671 87.7414 -5.55112e-17
764 2 34.8129 215.519 -5.55112e-17
765 1 136.146 185.376 -5.55112e-17
766 1 77.0043 49.453 -5.55112e-17
767 1 20.5263 140.396 -5.55112e-17
768 1 119.386 18.8296 -5.55112e-17
769 1 175.773 79.4713 -5.55112e-17
770 2 36.9696 149.324 -5.55112e-17
771 1 5.93164 96.6655 -5.55112e-17
772 1 31.0481 168.01 -5.55112e-17
773 1 116.36 58.492 -5.55112e-17
774 1 145.375 210.365 -5.55112e-17
775 1 98.6886 4.23419 -5.55112e-17
776 1 129.235 94.6747 -5.55112e-17
777 1 125.373 30.1339 -5.55112e-17
778 1 45.4841 94.09 -5.55112e-17
779 1 83.6379 157.265 -5.55112e-17
780 1 161.487 81.5713 -5.55112e-17
781 1 201.594 30.2767 -5.55112e-17
782 1 15.6415 41.9796 -5.55112e-17
783 1 113.356 115.394 -5.55112e-17
784 2 155.15 85.8625 -5.55112e-17
785 1 64.726 147.968 -5.55112e-17
786 1 32.0634 133.383 -5.55112e-17
787 1 1.15737 122.915 -5.55112e-17
788 1 162.1 94.1224 -5.55112e-17
789 2 216.193 95.9843 -5.55112e-17
790 1 140.77 112.76 -5.55112e-17
791 2 122.256 124.048 -5.55112e-17
792 2 5.74827 108.207 -5.55112e-17
793 2 134.867 157.476 -5.55112e-17
794 1 32.368 96.3777 -5.55112e-17
795 1 77.108 153.835 -5.55112e-17
796 1 109.017 135.591 -5.55112e-17
797 1 101.975 185.215 -5.55112e-17
798 2 97.073 107.452 -5.55112e-17
799 2 9.41745 82.3475 -5.55112e-17
800 2 144.447 66.3737 -5.55112e-17
801 1 93.8749 185.657 -5.55112e-17
802 1 105.527 76.8717 -5.55112e-17
803 1 3.54403 211.893 -5.55112e-17
804 2 149.406 190.871 -5.55112e-17
805 1 136.094 177.932 -5.55112e-17
806 1 51.0212 156.261 -5.55112e-17
807 2 216.477 216.891 -5.55112e-17
808 1 88.5007 183.353 -5.55112e-17
809 2 75.437 212.773 -5.55112e-17
810 1 139.696 76.412 -5.55112e-17
811 1 196.988 179.98 -5.55112e-17
812 1 16.207 204.878 -5.55112e-17
813 2 47.8744 190.698 -5.55112e-17
814 1 89.6881 68.2813 -5.55112e-17
815 1 154.895 216.675 -5.55112e-17
816 1 4.37144 209.818 -5.55112e-17
817 1 28.3804 87.4659 -5.55112e-17
818 1 0.97244 109.987 -5.55112e-17
819 1 80.4953 161.337 -5.55112e-17
820 1 103.875 88.8974 -5.55112e-17
821 1 79.0556 111.88 -5.55112e-17
822 2 41.9647 114.705 -5.55112e-17
823 2 208.594 95.4573 -5.55112e-17
824 1 92.8889 138.122 -5.55112e-17
825 1 30.367 42.3575 -5.55112e-17
826 1 151.753 130.392 -5.55112e-17
827 1 24.5352 89.9403 -5.55112e-17
828 1 59.462 8.69037 -5.55112e-17
829 1 55.9346 101.529 -5.55112e-17
830 1 3.95582 138.865 -5.55112e-17
831 1 16.2134 136.679 -5.55112e-17
832 1 113.605 24.9347 -5.55112e-17
833 1 213.604 105.338 -5.55112e-17
834 1 188.604 29.6636 -5.55112e-17
835 1 30.6647 192.72 -5.55112e-17
836 1 24.0617 168.22 -5.55112e-17
837 1 212.578 155.957 -5.55112e-17
838 1 141.791 193.193 -5.55112e-17
839 2 175.35 118.128 -5.55112e-17
840 1 69.6201 36.1361 -5.55112e-17
841 2 112.287 139.686 -5.55112e-17
842 1 93.4095 16.2791 -5.55112e-17
843 2 109.96 180.115 -5.55112e-17
844 1 195.814 14.9334 -5.55112e-17
845 1 49.201 204.121 -5.55112e-17
846 1 115.593 99.0281 -5.55112e-17
847 1 174.041 129.899 -5.55112e-17
848 1 133.683 28.6597 -5.55112e-17
849 1 73.2923 32.1125 -5.55112e-17
850 1 39.4832 132.703 -5.55112e-17
851 1 9.40839 159.85 -5.55112e-17
852 1 42.4192 128.905 -5.55112e-17
853 1 147.825 157.075 -5.55112e-17
854 1 97.0652 93.3155 -5.55112e-17
855 1 194.955 56.7091 -5.55112e-17
856 1 126.207 213.548 -5.55112e-17