ITEM: TIMESTEP
0
ITEM: NUMBER OF ATOMS
7200
ITEM: BOX BOUNDS xy xz yz pp pp pp
0.0000000000000000e+00 2.1900000000000000e+02 0.0000000000000000e+00
0.0000000000000000e+00 2.1900000000000000e+02 0.0000000000000000e+00
-3.6499999999999999e-01 3.6499999999999999e-01 0.0000000000000000e+00
ITEM: ATOMS id type x y z
1 1 139.252 98.5188 -5.55112e-17
2 1 105.279 136.81 -5.55112e-17
3 1 171.925 154.476 -5.55112e-17
4 1 141.126 204.754 -5.55112e-17
5 1 27.9247 177.378 -5.55112e-17
6 1 216.626 1.14886 -5.55112e-17
7 1 87.4056 95.4896 -5.55112e-17
8 2 7.19512 187.493 -5.55112e-17
9 1 171.412 48.3829 -5.55112e-17
10 2 140.626 210.144 -5.55112e-17
11 1 125.135 12.4382 -5.55112e-17
12 1 166.809 178.942 -5.55112e-17
13 2 169.882 96.9492 -5.55112e-17
14 1 125.311 9.75705 -5.55112e-17
15 1 71.6888 5.15072 -5.55112e-17
16 2 61.9526 130.029 -5.55112e-17
17 1 215.386 159.413 -5.55112e-17
18 2 172.067 189.677 -5.55112e-17
19 1 155.757 53.4154 -5.55112e-17
20 1 172.98 109.41 -5.55112e-17
21 1 65.4854 0.40663 -5.55112e-17
22 2 82.1804 152.836 -5.55112e-17
23 2 113.049 79.486 -5.55112e-17
24 1 64.4329 4.90205 -5.55112e-17
25 1 32.3518 123.233 -5.55112e-17
26 2 192.304 137.492 -5.55112e-17
27 1 116.538 86.2293 -5.55112e-17
28 2 86.371 100.262 -5.55112e-17
29 1 154.29 41.2443 -5.55112e-17
30 1 152.071 19.6123 -5.55112e-17
31 1 117.975 93.5587 -5.55112e-17
32 1 122.895 78.7559 -5.55112e-17
33 1 96.3824 191.648 -5.55112e-17
34 1 201.316 79.3555 -5.55112e-17
35 1 104.333 100.645 -5.55112e-17
36 1 22.6051 69.9117 -5.55112e-17
37 2 70.8265 213.292 -5.55112e-17
38 1 117.256 45.1296 -5.55112e-17
39 1 22.2275 64.1442 -5.55112e-17
40 1 34.7871 182.547 -5.55112e-17
41 1 40.882 204.667 -5.55112e-17
42 1 30.4243 13.6412 -5.55112e-17
43 1 46.7361 54.3843 -5.55112e-17
44 1 185.584 35.2264 -5.55112e-17
45 1 187.985 101.619 -5.55112e-17
46 1 145.302 203.491 -5.55112e-17
47 1 81.0389 127.232 -5.55112e-17
48 2 102.571 205.178 -5.55112e-17
49 1 62.7243 11.373 -5.55112e-17
50 1 25.1017 122.129 -5.55112e-17
51 1 193.723 180.219 -5.55112e-17
52 1 94.8152 73.4986 -5.55112e-17
53 1 179.661 158.078 -5.55112e-17
54 1 217.063 87.303 -5.55112e-17
55 1 62.9545 189.615 -5.55112e-17
56 1 23.5791 114.172 -5.55112e-17
57 2 50.8426 200.345 -5.55112e-17
58 1 202.39 86.2198 -5.55112e-17
59 1 31.7366 196.739 -5.55112e-17
60 2 29.0163 18.5433 -5.55112e-17
61 2 20.7884 145.374 -5.55112e-17
62 1 110.613 112.147 -5.55112e-17
63 1 209.481 134.891 -5.55112e-17
64 1 140.537 3.41729 -5.55112e-17
65 1 49.6768 26.6868 -5.55112e-17
66 1 11.5548 28.4647 -5.55112e-17
67 1 209.835 39.6213 -5.55112e-17
68 1 19.4704 31.247 -5.55112e-17
69 1 194.216 19.601 -5.55112e-17
70 1 199 41.269 -5.55112e-17
71 1 71.0913 119.863 -5.55112e-17
72 1 19.0853 213.959 -5.55112e-17
73 1 80.6144 90.3301 -5.55112e-17
74 1 49.5231 182.822 -5.55112e-17
75 2 55.1265 9.54864 -5.55112e-17
76 1 30.7223 101.94 -5.55112e-17
77 1 19.9145 37.3671 -5.55112e-17
78 1 188.838 11.4633 -5.55112e-17
79 2 146.258 100.134 -5.55112e-17
80 1 112.799 69.2208 -5.55112e-17
81 1 119.323 24.2236 -5.55112e-17
82 1 22.8198 179.319 -5.55112e-17
83 2 126.084 90.736 -5.55112e-17
84 1 89.6158 184.642 -5.55112e-17
85 1 47.5163 215.769 -5.55112e-17
86 1 118.965 131.157 -5.55112e-17
87 1 84.1613 107.491 -5.55112e-17
88 1 13.795 140.319 -5.55112e-17
89 2 214.903 110.093 -5.55112e-17
90 2 63.694 22.7667 -5.55112e-17
91 1 155.933 173.675 -5.55112e-17
92 2 123.176 62.99 -5.55112e-17
93 1 171.035 59.051 -5.55112e-17
94 2 11.6489 196.583 -5.55112e-17
95 1 169.056 174.862 -5.55112e-17
96 1 67.898 214.281 -5.55112e-17
97 1 206.763 127.243 -5.55112e-17
98 1 116.747 162.398 -5.55112e-17
99 1 30.9722 72.1951 -5.55112e-17
100 1 38.0193 106.286 -5.55112e-17
101 1 31.9776 44.6938 -5.55112e-17
102 1 119.495 8.01923 -5.55112e-17
103 1 145.858 26.1474 -5.55112e-17
104 1 74.5493 62.7041 -5.55112e-17
105 1 50.2579 50.0711 -5.55112e-17
106 1 201.866 122.332 -5.55112e-17
107 2 170.856 39.1433 -5.55112e-17
108 1 24.2874 20.0921 -5.55112e-17
109 1 140.067 74.038 -5.55112e-17
110 1 157.059 38.2957 -5.55112e-17
111 1 36.0342 80.1397 -5.55112e-17
112 1 12.9187 163.787 -5.55112e-17
113 1 84.9525 109.884 -5.55112e-17
114 1 2.55123 130.87 -5.55112e-17
115 1 167.081 189.424 -5.55112e-17
116 2 108.905 158.037 -5.55112e-17
117 1 24.29 97.1569 -5.55112e-17
118 1 193.781 184.368 -5.55112e-17
119 2 147.305 10.3729 -5.55112e-17
120 1 38.0444 66.531 -5.55112e-17
121 1 157.919 175.382 -5.55112e-17
122 1 150.566 204.727 -5.55112e-17
123 1 49.5694 74.1167 -5.55112e-17
124 1 95.0445 179.39 -5.55112e-17
125 1 152.65 101.476 -5.55112e-17
126 1 154.236 200.631 -5.55112e-17
127 1 48.353 201.53 -5.55112e-17
128 1 191.015 132.203 -5.55112e-17
129 1 76.2147 18.014 -5.55112e-17
130 1 68.5574 112.704 -5.55112e-17
131 1 82.2673 65.9111 -5.55112e-17
132 2 129.586 53.3049 -5.55112e-17
133 1 22.6294 164.922 -5.55112e-17
134 1 61.864 134.954 -5.55112e-17
135 1 124.982 29.4907 -5.55112e-17
136 1 129.545 194.638 -5.55112e-17
137 1 190.172 86.7229 -5.55112e-17
138 1 105.998 95.166 -5.55112e-17
139 1 171.389 45.2932 -5.55112e-17
140 2 199.468 175.906 -5.55112e-17
141 1 120.567 165.413 -5.55112e-17
142 2 217.023 190.119 -5.55112e-17
143 1 195.323 4.38742 -5.55112e-17
144 2 168.382 81.323 -5.55112e-17
145 1 125.26 146.587 -5.55112e-17
146 1 84.8099 160.278 -5.55112e-17
147 1 70.4407 199.536 -5.55112e-17
148 1 104.283 143.488 -5.55112e-17
149 1 127.783 167.563 -5.55112e-17
150 1 127.782 203.577 -5.55112e-17
151 1 216.482 31.497 -5.55112e-17
152 1 207.926 177.652 -5.55112e-17
153 2 62.5743 111.576 -5.55112e-17
154 1 99.0648 217.803 -5.55112e-17
155 1 202.146 38.0049 -5.55112e-17
156 2 146.674 125.675 -5.55112e-17
157 1 98.9828 50.0818 -5.55112e-17
158 1 160.61 216.34 -5.55112e-17
159 1 151.651 68.5031 -5.55112e-17
160 1 212.216 172.197 -5.55112e-17
161 1 47.0415 147.197 -5.55112e-17
162 1 170.348 172.841 -5.55112e-17
163 1 148.218 140.83 -5.55112e-17
164 1 92.9369 22.0278 -5.55112e-17
165 1 208.631 168.353 -5.55112e-17
166 2 72.7828 203.618 -5.55112e-17
167 1 10.8575 164.991 -5.55112e-17
168 1 159.071 147.356 -5.55112e-17
169 1 84.8476 195.439 -5.55112e-17
170 1 26.9059 85.5293 -5.55112e-17
171 1 52.4694 111.524 -5.55112e-17
172 1 199.523 37.8013 -5.55112e-17
173 1 215.925 150.241 -5.55112e-17
174 1 96.3047 31.8418 -5.55112e-17
175 2 154.019 92.3155 -5.55112e-17
176 1 7.36485 58.9031 -5.55112e-17
177 2 95.4821 155.895 -5.55112e-17
178 1 188.356 2.96107 -5.55112e-17
179 1 50.1923 164.823 -5.55112e-17
180 1 186.206 48.7458 -5.55112e-17
181 1 57.9272 38.3751 -5.55112e-17
182 2 127.892 18.762 -5.55112e-17
183 1 131.67 15.6246 -5.55112e-17
184 1 43.7892 14.0975 -5.55112e-17
185 2 184.402 113.528 -5.55112e-17
186 2 79.6595 75.4879 -5.55112e-17
187 1 194.228 139.668 -5.55112e-17
188 1 113.925 188.285 -5.55112e-17
189 1 204.123 15.9831 -5.55112e-17
190 2 213.938 127.595 -5.55112e-17
191 1 149.635 151.187 -5.55112e-17
192 2 137.214 136.188 -5.55112e-17
193 2 8.5497 80.2202 -5.55112e-17
194 1 63.916 81.4773 -5.55112e-17
195 1 59.3735 149.346 -5.55112e-17
196 1 127.213 115.784 -5.55112e-17
197 1 64.1509 25.9877 -5.55112e-17
198 2 19.4461 84.6634 -5.55112e-17
199 1 32.2075 61.1622 -5.55112e-17
200 1 5.41262 200.495 -5.55112e-17
201 2 204.861 129.296 -5.55112e-17
202 1 156.662 48.0378 -5.55112e-17
203 1 106.556 104.68 -5.55112e-17
204 1 157.449 207.726 -5.55112e-17
205 2 11.9683 209.634 -5.55112e-17
206 1 29.0648 216.997 -5.55112e-17
207 1 179.902 93.8234 -5.55112e-17
208 1 72.7474 150.125 -5.55112e-17
209 1 82.9889 89.9554 -5.55112e-17
210 1 193.488 131.92 -5.55112e-17
211 2 72.9675 160.678 -5.55112e-17
212 1 10.5261 95.2926 -5.55112e-17
213 1 44.978 65.4403 -5.55112e-17
214 1 208.509 18.9612 -5.55112e-17
215 1 188.798 196.537 -5.55112e-17
216 1 132.812 72.3594 -5.55112e-17
217 1 138.079 93.8727 -5.55112e-17
218 2 90.3008 11.1536 -5.55112e-17
219 1 92.2599 54.0229 -5.55112e-17
220 2 13.9788 85.7426 -5.55112e-17
221 1 12.8151 38.8209 -5.55112e-17
222 1 26.253 73.5297 -5.55112e-17
223 1 138.807 165.136 -5.55112e-17
224 2 141.064 163.628 -5.55112e-17
225 1 121.307 148.949 -5.55112e-17
226 1 156.635 187.922 -5.55112e-17
227 2 128.358 59.8115 -5.55112e-17
228 1 65.0424 128.617 -5.55112e-17
229 1 196.924 91.0449 -5.55112e-17
230 1 83.1598 97.3142 -5.55112e-17
231 1 96.8538 80.4524 -5.55112e-17
232 1 85.1303 215.429 -5.55112e-17
233 1 173.516 40.0989 -5.55112e-17
234 1 8.08473 154.563 -5.55112e-17
235 1 126.089 61.632 -5.55112e-17
236 1 215.21 96.8599 -5.55112e-17
237 1 27.5556 210.845 -5.55112e-17
238 1 25.202 102.11 -5.55112e-17
239 2 208.543 217.167 -5.55112e-17
240 1 182.532 28.0468 -5.55112e-17
241 2 2.12022 37.6366 -5.55112e-17
242 2 165.895 210.029 -5.55112e-17
243 2 167.796 156.93 -5.55112e-17
244 1 132.109 134.452 -5.55112e-17
245 1 104.075 170.847 -5.55112e-17
246 1 83.1919 216.773 -5.55112e-17
247 1 163.444 48.3937 -5.55112e-17
248 1 147.241 151.844 -5.55112e-17
249 1 17.1369 141.002 -5.55112e-17
250 2 157.688 100.437 -5.55112e-17
251 1 180.975 80.375 -5.55112e-17
252 1 37.2102 14.4649 -5.55112e-17
253 1 66.9002 5.02065 -5.55112e-17
254 2 170.168 16.97 -5.55112e-17
255 1 58.8767 218.278 -5.55112e-17
256 1 139.696 30.7172 -5.55112e-17
257 1 25.6768 126.55 -5.55112e-17
258 2 212.871 66.4633 -5.55112e-17
259 1 86.5998 37.5899 -5.55112e-17
260 1 122.241 48.9745 -5.55112e-17
261 1 35.2192 146.372 -5.55112e-17
262 1 185.488 82.057 -5.55112e-17
263 1 120.002 20.3073 -5.55112e-17
264 1 154.836 55.5354 -5.55112e-17
265 1 148.864 158.442 -5.55112e-17
266 1 54.6947 65.19 -5.55112e-17
267 1 132.028 32.1985 -5.55112e-17
268 1 45.2825 113.5 -5.55112e-17
269 1 204.45 99.7515 -5.55112e-17
270 1 20.662 172.625 -5.55112e-17
271 1 189.025 178.039 -5.55112e-17
272 1 89.8768 111.072 -5.55112e-17
273 1 1.96637 116.217 -5.55112e-17
274 2 109.314 100.655 -5.55112e-17
275 1 9.46016 216.687 -5.55112e-17
276 2 32.7633 120.482 -5.55112e-17
277 2 213.409 123.73 -5.55112e-17
278 1 136.708 218.961 -5.55112e-17
279 2 57.8015 160.463 -5.55112e-17
280 1 206.87 39.8149 -5.55112e-17
281 1 216.222 36.1483 -5.55112e-17
282 1 149.421 206.986 -5.55112e-17
283 1 42.268 188.878 -5.55112e-17
284 1 59.1995 144.456 -5.55112e-17
285 1 83.581 7.91129 -5.55112e-17
286 2 98.0615 160.251 -5.55112e-17
287 1 8.65806 5.7149 -5.55112e-17
288 1 46.7382 14.9094 -5.55112e-17
289 1 46.2099 1.3396 -5.55112e-17
290 1 89.7237 139.547 -5.55112e-17
291 1 58.7461 114.414 -5.55112e-17
292 2 190.157 75.4893 -5.55112e-17
293 2 13.7602 175.086 -5.55112e-17
294 1 81.214 192.486 -5.55112e-17
295 1 35.899 67.4927 -5.55112e-17
296 1 110.343 196.292 -5.55112e-17
297 1 189.147 64.3096 -5.55112e-17
298 1 11.3475 2.17058 -5.55112e-17
299 1 88.49 197.608 -5.55112e-17
300 2 23.3976 128.654 -5.55112e-17
301 1 84.8178 157.144 -5.55112e-17
302 1 174.887 73.6612 -5.55112e-17
303 2 184.945 154.128 -5.55112e-17
304 2 173.015 141.729 -5.55112e-17
305 1 170.334 110.305 -5.55112e-17
306 1 28.9115 5.85096 -5.55112e-17
307 1 96.6745 171.062 -5.55112e-17
308 1 78.4205 214.196 -5.55112e-17
309 2 194.042 147.378 -5.55112e-17
310 1 183.853 146.843 -5.55112e-17
311 1 139.999 214.977 -5.55112e-17
312 1 72.7279 200.721 -5.55112e-17
313 2 112.921 1.97448 -5.55112e-17
314 1 212.719 169.744 -5.55112e-17
315 1 94.2011 163.527 -5.55112e-17
316 1 213.6 194.131 -5.55112e-17
317 1 80.9164 215.374 -5.55112e-17
318 1 149.342 182.22 -5.55112e-17
319 1 13.8828 0.145125 -5.55112e-17
320 1 119.31 200.349 -5.55112e-17
321 1 66.0206 171.368 -5.55112e-17
322 1 107.337 126.674 -5.55112e-17
323 1 73.4661 206.375 -5.55112e-17
324 1 195.297 118.921 -5.55112e-17
325 1 57.9356 139.013 -5.55112e-17
326 1 14.1615 46.3871 -5.55112e-17
327 2 191.986 157.163 -5.55112e-17
328 1 16.1485 41.8633 -5.55112e-17
329 2 216.412 193.26 -5.55112e-17
330 1 21.6658 79.1285 -5.55112e-17
331 1 214.56 189.346 -5.55112e-17
332 2 90.9505 145.511 -5.55112e-17
333 1 163.014 102.175 -5.55112e-17
334 1 80.7059 13.0422 -5.55112e-17
335 1 1.10569 199.149 -5.55112e-17
336 1 113.871 66.7116 -5.55112e-17
337 1 171.546 212.011 -5.55112e-17
338 1 196.638 139.734 -5.55112e-17
339 1 102.443 118.267 -5.55112e-17
340 1 97.9053 157.681 -5.55112e-17
341 1 69.4983 42.2284 -5.55112e-17
342 1 161.796 129.205 -5.55112e-17
343 1 116.615 76.7083 -5.55112e-17
344 1 23.4915 176.742 -5.55112e-17
345 1 178.943 130.821 -5.55112e-17
346 1 50.9562 141.734 -5.55112e-17
347 1 176.306 138.284 -5.55112e-17
348 1 215.84 65.968 -5.55112e-17
349 1 190.727 189.786 -5.55112e-17
350 2 200.507 53.8741 -5.55112e-17
351 1 24.2503 174.172 -5.55112e-17
352 1 14.0248 213.882 -5.55112e-17
353 1 192.032 153.331 -5.55112e-17
354 1 216.067 99.8738 -5.55112e-17
355 1 6.66404 48.8493 -5.55112e-17
356 1 20.4023 198.778 -5.55112e-17
357 1 45.5207 210.756 -5.55112e-17
358 1 36.8239 4.67641 -5.55112e-17
359 1 92.1947 9.41144 -5.55112e-17
360 1 113.955 142.257 -5.55112e-17
361 1 100.465 200.124 -5.55112e-17
362 1 118.814 158.452 -5.55112e-17
363 1 156.489 57.6797 -5.55112e-17
364 2 132.657 84.2665 -5.55112e-17
365 1 5.84431 13.0589 -5.55112e-17
366 1 48.4646 169.48 -5.55112e-17
367 1 9.45353 64.924 -5.55112e-17
368 1 193.197 162.321 -5.55112e-17
369 2 107.77 180.579 -5.55112e-17
370 1 7.59839 32.1191 -5.55112e-17
371 1 210.917 42.6498 -5.55112e-17
372 2 73.531 118.305 -5.55112e-17
373 2 133.792 117.336 -5.55112e-17
374 1 125.097 3.00762 -5.55112e-17
375 1 113.086 95.1812 -5.55112e-17
376 1 4.69064 10.8443 -5.55112e-17
377 1 122.41 97.147 -5.55112e-17
378 1 70.8098 83.4199 -5.55112e-17
379 1 151.334 84.8008 -5.55112e-17
380 1 81.7718 53.8568 -5.55112e-17
381 1 202.167 29.5747 -5.55112e-17
382 1 146.486 154.371 -5.55112e-17
383 1 20.6595 218.082 -5.55112e-17
384 1 32.3256 23.453 -5.55112e-17
385 1 124.226 31.9724 -5.55112e-17
386 2 97.3844 75.4418 -5.55112e-17
387 1 137.37 30.8867 -5.55112e-17
388 1 131.552 38.4256 -5.55112e-17
389 1 136.014 44.9208 -5.55112e-17
390 2 84.9376 178.84 -5.55112e-17
391 2 67.3984 203.467 -5.55112e-17
392 1 50.1146 189.931 -5.55112e-17
393 1 101.949 217.786 -5.55112e-17
394 1 92.1082 63.859 -5.55112e-17
395 1 108.219 155.171 -5.55112e-17
396 1 135.166 101.363 -5.55112e-17
397 1 199.356 209.139 -5.55112e-17
398 1 168.328 165.622 -5.55112e-17
399 1 153.455 89.0509 -5.55112e-17
400 1 38.9171 36.6302 -5.55112e-17
401 1 67.7272 32.5669 -5.55112e-17
402 2 49.5008 46.945 -5.55112e-17
403 1 164.261 202.142 -5.55112e-17
404 1 161.627 132.131 -5.55112e-17
405 1 124.543 124.464 -5.55112e-17
406 1 151.209 161.814 -5.55112e-17
407 2 171.33 54.3423 -5.55112e-17
408 1 12.5159 187.634 -5.55112e-17
409 1 108.896 150.534 -5.55112e-17
410 1 59.5166 135.05 -5.55112e-17
411 1 51.0481 20.2825 -5.55112e-17
412 1 167.865 140.248 -5.55112e-17
413 1 59.2497 96.6178 -5.55112e-17
414 1 58.6571 157.521 -5.55112e-17
415 1 169.242 34.6551 -5.55112e-17
416 1 26.1708 138.377 -5.55112e-17
417 1 11.2439 13.0216 -5.55112e-17
418 2 189.305 187.375 -5.55112e-17
419 1 8.88859 36.8369 -5.55112e-17
420 2 88.7027 200.637 -5.55112e-17
421 1 171.709 85.2804 -5.55112e-17
422 1 92.7059 135.903 -5.55112e-17
423 2 216.24 142.635 -5.55112e-17
424 1 160.44 142.076 -5.55112e-17
425 1 130.069 48.4292 -5.55112e-17
426 1 145.093 209.239 -5.55112e-17
427 1 164.328 35.7661 -5.55112e-17
428 1 69.9389 135.953 -5.55112e-17
429 1 106.789 102.068 -5.55112e-17
430 1 54.495 52.6573 -5.55112e-17
431 1 147.71 183.754 -5.55112e-17
432 1 60.3275 161.665 -5.55112e-17
433 1 68.3346 137.981 -5.55112e-17
434 1 88.7855 76.3793 -5.55112e-17
435 1 63.6663 169.484 -5.55112e-17
436 1 120.448 38.2877 -5.55112e-17
437 1 196.969 147.719 -5.55112e-17
438 2 198.655 132.598 -5.55112e-17
439 1 71.3445 193.687 -5.55112e-17
440 1 31.4188 86.6824 -5.55112e-17
441 1 60.1818 124.94 -5.55112e-17
442 1 52.8564 168.786 -5.55112e-17
443 1 183.804 131.351 -5.55112e-17
444 1 188.985 126.114 -5.55112e-17
445 1 147.731 102.514 -5.55112e-17
446 1 26.015 2.30026 -5.55112e-17
447 1 75.3397 36.603 -5.55112e-17
448 1 138.636 193.063 -5.55112e-17
449 1 155.504 150.483 -5.55112e-17
450 1 40.5394 135.096 -5.55112e-17
451 1 52.6298 22.3802 -5.55112e-17
452 1 128.338 190.055 -5.55112e-17
453 1 209.964 76.166 -5.55112e-17
454 1 96.5348 174.669 -5.55112e-17
455 1 87.7013 51.3762 -5.55112e-17
456 1 119.737 40.8751 -5.55112e-17
457 1 162.376 134.319 -5.55112e-17
458 1 158.068 33.2284 -5.55112e-17
459 1 61.4846 142.988 -5.55112e-17
460 1 178.499 30.8396 -5.55112e-17
461 1 8.24786 190.048 -5.55112e-17
462 1 137.802 210.533 -5.55112e-17
463 1 202.423 188.641 -5.55112e-17
464 1 82.3131 161.495 -5.55112e-17
465 1 215.684 103.145 -5.55112e-17
466 1 207.084 214.414 -5.55112e-17
467 1 95.5601 2.80358 -5.55112e-17
468 1 46.9404 75.4448 -5.55112e-17
469 1 125.054 215.162 -5.55112e-17
470 1 122.87 164.322 -5.55112e-17
471 1 173.086 87.4108 -5.55112e-17
472 1 144.977 149.851 -5.55112e-17
473 1 40.1329 187.038 -5.55112e-17
474 1 111.24 27.8078 -5.55112e-17
475 1 214.79 33.9137 -5.55112e-17
476 2 137.345 172.81 -5.55112e-17
477 1 190.893 197.674 -5.55112e-17
478 1 112.836 167.311 -5.55112e-17
479 1 183.431 198.822 -5.55112e-17
480 1 176.959 48.6794 -5.55112e-17
481 1 30.6215 74.7517 -5.55112e-17
482 1 138.228 52.5723 -5.55112e-17
483 1 118.758 213.943 -5.55112e-17
484 2 35.0646 19.1378 -5.55112e-17
485 1 161.56 46.5749 -5.55112e-17
486 1 160.735 23.0847 -5.55112e-17
487 1 80.9294 98.7246 -5.55112e-17
488 1 38.8798 110.857 -5.55112e-17
489 1 7.34171 66.8031 -5.55112e-17
490 1 55.052 31.8757 -5.55112e-17
491 1 213.331 107.153 -5.55112e-17
492 1 34.7789 169.316 -5.55112e-17
493 1 27.0009 21.0764 -5.55112e-17
494 1 208.142 74.4695 -5.55112e-17
495 1 60.6544 172.644 -5.55112e-17
496 2 192.913 2.65165 -5.55112e-17
497 1 99.7476 44.6232 -5.55112e-17
498 1 65.1382 126.034 -5.55112e-17
499 2 125.536 173.531 -5.55112e-17
500 1 67.0516 145.059 -5.55112e-17
501 2 1.53981 83.1508 -5.55112e-17
502 2 130.569 110.122 -5.55112e-17
503 1 111.469 76.7908 -5.55112e-17
504 1 43.7431 178.427 -5.55112e-17
505 1 1.26273 4.01343 -5.55112e-17
506 1 156.408 126.849 -5.55112e-17
507 1 173.614 80.9746 -5.55112e-17
508 1 119.236 192.748 -5.55112e-17
509 2 27.6095 37.1576 -5.55112e-17
510 2 30.4005 0.876402 -5.55112e-17
511 1 199.871 56.3624 -5.55112e-17
512 2 60.6464 140.355 -5.55112e-17
513 1 106.493 148.165 -5.55112e-17
514 1 145.69 167.676 -5.55112e-17
515 1 41.9327 22.9768 -5.55112e-17
516 1 85.928 80.4449 -5.55112e-17
517 1 82.2041 124.991 -5.55112e-17
518 2 199.756 90.194 -5.55112e-17
519 1 116.252 119.946 -5.55112e-17
520 2 145.67 46.6952 -5.55112e-17
521 1 217.776 26.4549 -5.55112e-17
522 1 159.646 179.872 -5.55112e-17
523 1 210.878 116.61 -5.55112e-17
524 1 69.7055 62.8894 -5.55112e-17
525 1 144.836 194.48 -5.55112e-17
526 1 110.204 198.675 -5.55112e-17
527 1 19.1873 105.526 -5.55112e-17
528 1 45.8793 140.021 -5.55112e-17
529 1 113.79 174.733 -5.55112e-17
530 1 35.3727 119.191 -5.55112e-17
531 1 104.354 80.7467 -5.55112e-17
532 1 54.6728 207.022 -5.55112e-17
533 1 217.363 33.953 -5.55112e-17
534 1 67.3909 109.921 -5.55112e-17
535 1 181.384 159.895 -5.55112e-17
536 1 155.981 205.527 -5.55112e-17
537 1 102.385 21.6434 -5.55112e-17
538 1 127.497 109.229 -5.55112e-17
539 1 174.155 55.0667 -5.55112e-17
540 1 192.445 42.3548 -5.55112e-17
541 1 59.1888 20.3016 -5.55112e-17
542 1 181.874 65.8896 -5.55112e-17
543 1 3.91308 78.082 -5.55112e-17
544 1 209.716 35.2645 -5.55112e-17
545 1 96.7744 216.367 -5.55112e-17
546 1 89.1236 93.2745 -5.55112e-17
547 1 104.498 197.603 -5.55112e-17
548 1 178.546 143.491 -5.55112e-17
549 1 109.069 128.364 -5.55112e-17
550 2 111.85 117.902 -5.55112e-17
551 2 62.3055 206.826 -5.55112e-17
552 2 178.056 211.663 -5.55112e-17
553 1 81.3632 63.5321 -5.55112e-17
554 1 0.359781 128.253 -5.55112e-17
555 2 57.6823 184.09 -5.55112e-17
556 1 143.148 109.934 -5.55112e-17
557 1 169.172 116.068 -5.55112e-17
558 1 62.0013 153.553 -5.55112e-17
559 1 20.4983 209.086 -5.55112e-17
560 1 148.422 13.4166 -5.55112e-17
561 1 40.1571 24.9197 -5.55112e-17
562 1 6.52876 146.669 -5.55112e-17
563 2 171.179 89.7045 -5.55112e-17
564 1 55.4177 77.4917 -5.55112e-17
565 1 213.659 50.6564 -5.55112e-17
566 1 37.32 182.527 -5.55112e-17
567 1 167.947 118.315 -5.55112e-17
568 1 11.722 116.316 -5.55112e-17
569 1 79.7616 134.874 -5.55112e-17
570 1 11.9129 212.581 -5.55112e-17
571 1 201.098 137.808 -5.55112e-17
572 1 88.0317 134.068 -5.55112e-17
573 1 78.237 8.53523 -5.55112e-17
574 1 130.156 162.085 -5.55112e-17
575 1 35.0125 142.784 -5.55112e-17
576 1 13.5117 131.924 -5.55112e-17
577 1 108.758 103.856 -5.55112e-17
578 1 143.665 92.4374 -5.55112e-17
579 1 186.011 192.791 -5.55112e-17
580 1 140.025 197.919 -5.55112e-17
581 1 124.129 57.1022 -5.55112e-17
582 1 24.3168 65.6328 -5.55112e-17
583 1 146.234 130.599 -5.55112e-17
584 2 131.202 35.0184 -5.55112e-17
585 1 59.5743 6.77204 -5.55112e-17
586 1 120.634 135.569 -5.55112e-17
587 1 199.313 77.9129 -5.55112e-17
588 1 215.538 148.16 -5.55112e-17
589 1 142.947 208.315 -5.55112e-17
590 1 14.5033 157.192 -5.55112e-17
591 1 90.9792 167.19 -5.55112e-17
592 1 113.834 28.8193 -5.55112e-17
593 1 93.1676 18.974 -5.55112e-17
594 1 103.997 90.0612 -5.55112e-17
595 1 150.979 96.5448 -5.55112e-17
596 1 96.7058 113.319 -5.55112e-17
597 2 108.597 26.8401 -5.55112e-17
598 1 5.3225 163.784 -5.55112e-17
599 1 140.017 96.1772 -5.55112e-17
600 1 122.141 125.246 -5.55112e-17
601 1 178.2 38.5429 -5.55112e-17
602 1 151.573 42.1287 -5.55112e-17
603 1 150.191 165.398 -5.55112e-17
604 1 155.765 89.4625 -5.55112e-17
605 2 188.015 33.8526 -5.55112e-17
606 1 183.536 161.947 -5.55112e-17
607 2 125.133 20.1259 -5.55112e-17
608 1 168.067 23.1693 -5.55112e-17
609 1 52.659 91.4395 -5.55112e-17
610 1 116.038 27.5236 -5.55112e-17
611 1 109.587 125.734 -5.55112e-17
612 1 45.5091 61.1205 -5.55112e-17
613 1 102.721 75.9311 -5.55112e-17
614 2 143.434 44.5692 -5.55112e-17
615 1 1.50237 22.1696 -5.55112e-17
616 1 79.6129 65.3063 -5.55112e-17
617 1 176.013 53.3995 -5.55112e-17
618 1 75.6979 104.775 -5.55112e-17
619 1 28.6415 105.942 -5.55112e-17
620 1 10.8034 4.68373 -5.55112e-17
621 1 170.638 195.521 -5.55112e-17
622 1 197.822 199.162 -5.55112e-17
623 1 45.7238 23.8299 -5.55112e-17
624 1 184.189 159.611 -5.55112e-17
625 1 197.642 3.66341 -5.55112e-17
626 1 11.4517 218.236 -5.55112e-17
627 1 218.222 65.122 -5.55112e-17
628 1 75.9807 183.322 -5.55112e-17
629 1 190.301 118.459 -5.55112e-17
630 2 95.326 83.2172 -5.55112e-17
631 1 210.512 197.641 -5.55112e-17
632 1 14.2728 101.018 -5.55112e-17
633 1 56.8914 121.658 -5.55112e-17
634 1 45.6697 29.8938 -5.55112e-17
635 1 26.9885 95.1392 -5.55112e-17
636 1 60.518 73.693 -5.55112e-17
637 1 101.118 54.1013 -5.55112e-17
638 1 216.859 20.8161 -5.55112e-17
639 2 96.9199 0.493751 -5.55112e-17
640 1 195.578 162.133 -5.55112e-17
641 1 95.5728 78.2234 -5.55112e-17
642 1 104.595 209.658 -5.55112e-17
643 2 18.7572 132.426 -5.55112e-17
644 1 98.9679 106.331 -5.55112e-17
645 1 151.076 13.9046 -5.55112e-17
646 2 178.501 126.025 -5.55112e-17
647 1 154.249 171.055 -5.55112e-17
648 1 172.236 24.2797 -5.55112e-17
649 2 94.1171 41.7141 -5.55112e-17
650 1 137.044 103.598 -5.55112e-17
651 1 81.3412 4.78157 -5.55112e-17
652 1 129.763 125.969 -5.55112e-17
653 1 197.865 54.4768 -5.55112e-17
654 1 167.171 17.3072 -5.55112e-17
655 2 185.196 208.911 -5.55112e-17
656 1 156.349 81.7968 -5.55112e-17
657 2 213.096 164.391 -5.55112e-17
658 1 23.3676 104.198 -5.55112e-17
659 2 165.72 100.916 -5.55112e-17
660 1 163.821 57.9147 -5.55112e-17
661 1 103.898 106.166 -5.55112e-17
662 1 198.723 75.6232 -5.55112e-17
663 1 89.7599 177.876 -5.55112e-17
664 1 9.39236 58.1136 -5.55112e-17
665 1 4.80126 113.688 -5.55112e-17
666 2 14.3867 77.7259 -5.55112e-17
667 1 25.9772 161.658 -5.55112e-17
668 2 53.3537 216.263 -5.55112e-17
669 1 179.712 128.491 -5.55112e-17
670 1 132.577 52.6019 -5.55112e-17
671 2 131.258 70.0462 -5.55112e-17
672 1 67.1221 43.5119 -5.55112e-17
673 1 19.0909 113.622 -5.55112e-17
674 1 189.834 1.1552 -5.55112e-17
675 1 40.6125 97.4738 -5.55112e-17
676 1 208.59 44.2214 -5.55112e-17
677 1 153.859 193.876 -5.55112e-17
678 1 167.636 98.7021 -5.55112e-17
679 2 47.1412 160.356 -5.55112e-17
680 1 33.9749 131.148 -5.55112e-17
681 2 11.0652 46.1336 -5.55112e-17
682 1 135.668 72.2206 -5.55112e-17
683 1 175.717 143.045 -5.55112e-17
684 1 56.2697 54.3581 -5.55112e-17
685 1 71.3192 178.013 -5.55112e-17
686 1 22.3201 44.0105 -5.55112e-17
687 1 139.81 117.887 -5.55112e-17
688 1 10.385 206.85 -5.55112e-17
689 2 24.5922 30.9738 -5.55112e-17
690 1 10.4551 178.45 -5.55112e-17
691 1 39.5587 123.212 -5.55112e-17
692 1 26.0721 81.1186 -5.55112e-17
693 1 147.22 111.678 -5.55112e-17
694 1 157.646 203.42 -5.55112e-17
695 1 58.1722 14.2332 -5.55112e-17
696 1 71.673 215.825 -5.55112e-17
697 1 77.5599 150.648 -5.55112e-17
698 1 201.303 191.225 -5.55112e-17
699 1 104.392 108.545 -5.55112e-17
700 1 215.238 198.579 -5.55112e-17
701 1 36.0565 132.657 -5.55112e-17
702 1 57.4524 167.896 -5.55112e-17
703 2 147.292 177.624 -5.55112e-17
704 1 57.4497 133.337 -5.55112e-17
705 2 69.0217 141.159 -5.55112e-17
706 1 22.3779 23.9617 -5.55112e-17
707 1 83.2234 164.062 -5.55112e-17
708 1 143.581 99.8504 -5.55112e-17
709 1 119.634 137.836 -5.55112e-17
710 1 128.761 205.91 -5.55112e-17
711 1 99.1904 47.5761 -5.55112e-17
712 1 44.2814 175.675 -5.55112e-17
713 1 130.896 113.023 -5.55112e-17
714 1 57.4017 94.8111 -5.55112e-17
715 1 160.667 61.2331 -5.55112e-17
716 1 9.38101 48.6464 -5.55112e-17
717 1 213.859 206.245 -5.55112e-17
718 1 47.2335 208.448 -5.55112e-17
719 2 7.93553 72.0461 -5.55112e-17
720 1 64.8144 211.097 -5.55112e-17
721 1 187.313 98.9882 -5.55112e-17
722 1 68.0495 67.5679 -5.55112e-17
723 2 101.533 71.1072 -5.55112e-17
724 1 152.565 202.738 -5.55112e-17
725 1 207.106 15.345 -5.55112e-17
726 1 52.2954 159.746 -5.55112e-17
727 1 82.5386 70.364 -5.55112e-17
728 2 48.884 52.4686 -5.55112e-17
729 1 207.555 4.12292 -5.55112e-17
730 1 11.4339 193.99 -5.55112e-17
731 1 209.959 3.11172 -5.55112e-17
732 1 115.032 17.5639 -5.55112e-17
733 1 189.293 180.738 -5.55112e-17
734 1 107.687 9.40414 -5.55112e-17
735 1 14.2826 189.313 -5.55112e-17
736 2 12.8905 34.0584 -5.55112e-17
737 1 29.4905 34.7435 -5.55112e-17
738 1 195.35 86.6279 -5.55112e-17
739 1 161.894 56.4182 -5.55112e-17
740 1 162.049 107.701 -5.55112e-17
741 2 112.11 107.686 -5.55112e-17
742 1 22.7963 202.546 -5.55112e-17
743 1 122.955 109.73 -5.55112e-17
744 2 0.197456 94.1411 -5.55112e-17
745 1 11.2756 147.188 -5.55112e-17
746 1 18.3255 74.7348 -5.55112e-17
747 2 56.7389 72.4314 -5.55112e-17
748 1 99.8964 34.9824 -5.55112e-17
749 1 111.788 209.244 -5.55112e-17
750 1 86.2497 181.438 -5.55112e-17
751 1 37.567 193.336 -5.55112e-17
752 1 140.504 62.46 -5.55112e-17
753 1 130.686 132.351 -5.55112e-17
754 1 21.5613 109.87 -5.55112e-17
755 1 186.292 108.673 -5.55112e-17
756 2 129.776 169.834 -5.55112e-17
757 1 96.2509 7.81795 -5.55112e-17
758 1 72.5678 21.1061 -5.55112e-17
759 1 159.379 187.748 -5.55112e-17
760 1 174.421 179.83 -5.55112e-17
761 1 65.3648 194.34 -5.55112e-17
762 1 64.4604 192.241 -5.55112e-17
763 1 61.4019 217.576 -5.55112e-17
764 2 153.985 83.8396 -5.55112e-17
765 1 204.513 153.683 -5.55112e-17
766 1 197.712 182.233 -5.55112e-17
767 1 82.4084 211.624 -5.55112e-17
768 1 143.169 182.038 -5.55112e-17
769 1 21.8881 46.518 -5.55112e-17
770 2 167.89 14.8554 -5.55112e-17
771 1 183.533 80.1537 -5.55112e-17
772 1 120.98 159.872 -5.55112e-17
773 1 96.3043 98.5899 -5.55112e-17
774 1 16.729 86.1558 -5.55112e-17
775 1 183.132 30.2973 -5.55112e-17
776 1 119.269 195.027 -5.55112e-17
777 1 129.37 26.4597 -5.55112e-17
778 1 47.4494 65.8478 -5.55112e-17
779 1 163.073 40.8874 -5.55112e-17
780 1 133.56 191.835 -5.55112e-17
781 1 24.2472 156.496 -5.55112e-17
782 1 42.9537 132.323 -5.55112e-17
783 1 18.8614 10.9537 -5.55112e-17
784 2 175.944 195.233 -5.55112e-17
785 1 151.141 174.275 -5.55112e-17
786 1 153.003 154.706 -5.55112e-17
787 1 29.7909 43.9406 -5.55112e-17
788 1 151.094 141.025 -5.55112e-17
789 2 25.2981 91.1785 -5.55112e-17
790 1 169.304 52.4162 -5.55112e-17
791 2 1.26964 63.1516 -5.55112e-17
792 2 128.266 120.416 -5.55112e-17
793 2 178.995 65.2817 -5.55112e-17
794 1 90.5208 78.6252 -5.55112e-17
795 1 149.472 146.568 -5.55112e-17
796 1 116.715 101.864 -5.55112e-17
797 1 133.81 129.437 -5.55112e-17
798 2 216.642 59.4624 -5.55112e-17
799 2 119.997 197.755 -5.55112e-17
800 2 77.3298 69.9367 -5.55112e-17
801 1 21.7295 155.764 -5.55112e-17
802 1 194.354 177.847 -5.55112e-17
803 1 72.1614 152.544 -5.55112e-17
804 2 116.144 129.95 -5.55112e-17
805 1 68.8073 154.276 -5.55112e-17
806 1 107.26 185.507 -5.55112e-17
807 2 157.593 124.27 -5.55112e-17
808 1 15.4006 15.1331 -5.55112e-17
809 2 97.4045 206.915 -5.55112e-17
810 1 30.3642 8.83821 -5.55112e-17
811 1 152.029 118.383 -5.55112e-17
812 1 143.098 38.1757 -5.55112e-17
813 2 40.0096 18.5048 -5.55112e-17
814 1 31.3772 174.726 -5.55112e-17
815 1 145.336 54.1059 -5.55112e-17
816 1 146.182 156.919 -5.55112e-17
817 1 210.055 11.3564 -5.55112e-17
818 1 138.389 19.971 -5.55112e-17
819 1 108.879 11.6999 -5.55112e-17
820 1 104.47 189.998 -5.55112e-17
821 1 166.876 35.4302 -5.55112e-17
822 2 52.2636 181.812 -5.55112e-17
823 2 176.57 56.9635 -5.55112e-17
824 1 24.8578 0.25093 -5.55112e-17
825 1 200.689 186.758 -5.55112e-17
826 1 38.7328 195.621 -5.55112e-17
827 1 13.3 168.747 -5.55112e-17
828 1 36.3957 53.3821 -5.55112e-17
829 1 204.69 158.866 -5.55112e-17
830 1 178.55 50.9289 -5.55112e-17
831 1 17.0301 189.038 -5.55112e-17
832 1 165.934 5.91537 -5.55112e-17
833 1 54.4268 176.52 -5.55112e-17
834 1 16.2895 152.653 -5.55112e-17
835 1 18.4897 93.0479 -5.55112e-17
836 1 21.4692 96.1943 -5.55112e-17
837 1 108.517 0.113141 -5.55112e-17
838 1 48.6066 104.122 -5.55112e-17
839 2 51.4588 38.9605 -5.55112e-17
840 1 203.289 131.424 -5.55112e-17
841 2 170.437 8.52778 -5.55112e-17
842 1 204.266 165.779 -5.55112e-17
843 2 130.659 81.3766 -5.55112e-17
844 1 103.306 11.2744 -5.55112e-17
845 1 164.682 186.092 -5.55112e-17
846 1 88.3218 84.9236 -5.55112e-17
847 1 120.819 127.096 -5.55112e-17
848 1 204.328 107.014 -5.55112e-17
849 1 137.76 84.5192 -5.55112e-17
850 1 102.285 208.632 -5.55112e-17
851 1 201.819 51.5472 -5.55112e-17
852 1 214.218 113.064 -5.55112e-17
853 1 151.722 81.9799 -5.55112e-17
854 1 178.447 83.8276 -5.55112e-17
855 1 53.7556 72.6793 -5.55112e-17
856 1 147.646 55.6785 -5.55112e-17