ITEM: TIMESTEP
0
ITEM: NUMBER OF ATOMS
7200
ITEM: BOX BOUNDS xy xz yz pp pp pp
0.0000000000000000e+00 2.1900000000000000e+02 0.0000000000000000e+00
0.0000000000000000e+00 2.1900000000000000e+02 0.0000000000000000e+00
-3.6499999999999999e-01 3.6499999999999999e-01 0.0000000000000000e+00
ITEM: ATOMS id type x y z
1 1 184.422 14.7893 -5.55112e-17
2 2 198.091 177.126 -5.55112e-17
3 2 141.107 185.588 -5.55112e-17
4 1 122.283 110.069 -5.55112e-17
5 1 95.9257 120.759 -5.55112e-17
6 1 115.417 16.648 -5.55112e-17
7 2 165.886 127.456 -5.55112e-17
8 2 71.4526 14.9625 -5.55112e-17
9 1 17.3702 209.864 -5.55112e-17
10 2 54.4254 165.54 -5.55112e-17
11 2 1.97084 87.5504 -5.55112e-17
12 1 32.295 190.223 -5.55112e-17
13 2 185.471 71.2534 -5.55112e-17
14 1 53.9388 175.209 -5.55112e-17
15 2 194.184 1.84239 -5.55112e-17
16 2 1.47478 97.3017 -5.55112e-17
17 1 71.977 75.807 -5.55112e-17
18 2 8.36251 169.181 -5.55112e-17
19 1 91.914 129.856 -5.55112e-17
20 1 68.7909 23.3627 -5.55112e-17
21 1 151.958 9.67444 -5.55112e-17
22 2 31.8225 211.442 -5.55112e-17
23 2 43.8364 207.514 -5.55112e-17
24 2 211.003 105.144 -5.55112e-17
25 2 12.1509 192.949 -5.55112e-17
26 2 155.601 20.6968 -5.55112e-17
27 1 214.685 162.102 -5.55112e-17
28 2 52.1093 157.404 -5.55112e-17
29 2 83.721 1.81701 -5.55112e-17
30 2 131.974 36.377 -5.55112e-17
31 2 155.527 83.6856 -5.55112e-17
32 1 42.4842 122.771 -5.55112e-17
33 2 144.345 87.1362 -5.55112e-17
34 2 19.9103 112.576 -5.55112e-17
35 2 110.277 24.9483 -5.55112e-17
36 1 160.033 145.614 -5.55112e-17
37 1 136.261 184.618 -5.55112e-17
38 2 206.541 156.773 -5.55112e-17
39 1 8.30246 41.5814 -5.55112e-17
40 2 195.504 70.9858 -5.55112e-17
41 1 194.497 81.1376 -5.55112e-17
42 1 66.2635 58.2376 -5.55112e-17
43 1 210.14 130.185 -5.55112e-17
44 1 151.631 193.977 -5.55112e-17
45 2 159.023 60.8396 -5.55112e-17
46 1 125.063 191.483 -5.55112e-17
47 2 91.682 65.2283 -5.55112e-17
48 2 153.088 122.077 -5.55112e-17
49 1 194.004 202.26 -5.55112e-17
50 2 31.0204 46.8274 -5.55112e-17
51 1 187.453 4.91732 -5.55112e-17
52 1 84.667 53.9344 -5.55112e-17
53 2 60.9437 189.471 -5.55112e-17
54 1 36.08 12.8586 -5.55112e-17
55 2 52.4139 143.561 -5.55112e-17
56 1 30.1802 133.118 -5.55112e-17
57 2 57.4393 133.105 -5.55112e-17
58 1 175.735 58.652 -5.55112e-17
59 1 156.593 85.8465 -5.55112e-17
60 2 208.32 59.6323 -5.55112e-17
61 1 163.799 154.539 -5.55112e-17
62 1 103.766 110.297 -5.55112e-17
63 2 112.559 26.9973 -5.55112e-17
64 1 29.1823 15.8888 -5.55112e-17
65 2 155.388 147.18 -5.55112e-17
66 2 8.51328 156.694 -5.55112e-17
67 2 175.644 101.647 -5.55112e-17
68 1 135.987 83.1059 -5.55112e-17
69 2 107.718 167.273 -5.55112e-17
70 1 141.399 97.7118 -5.55112e-17
71 1 210.413 141.278 -5.55112e-17
72 2 42.1571 158.67 -5.55112e-17
73 2 189.776 193.483 -5.55112e-17
74 2 122.561 59.058 -5.55112e-17
75 1 11.8103 129.595 -5.55112e-17
76 2 145.712 204.774 -5.55112e-17
77 2 163.487 7.01408 -5.55112e-17
78 1 88.7614 215.811 -5.55112e-17
79 2 61.9374 77.3996 -5.55112e-17
80 1 54.2857 31.2023 -5.55112e-17
81 1 182.122 213.513 -5.55112e-17
82 1 182.971 37.6214 -5.55112e-17
83 1 72.5427 92.0387 -5.55112e-17
84 2 140.332 180.223 -5.55112e-17
85 2 148.53 143.626 -5.55112e-17
86 2 52.3374 69.4757 -5.55112e-17
87 2 34.6437 85.2659 -5.55112e-17
88 1 78.6741 156.454 -5.55112e-17
89 2 193.243 104.925 -5.55112e-17
90 2 126.098 34.8695 -5.55112e-17
91 2 12.1672 186.731 -5.55112e-17
92 1 21.2489 211.43 -5.55112e-17
93 2 110.375 153.83 -5.55112e-17
94 2 113.978 146.661 -5.55112e-17
95 1 213.83 51.9634 -5.55112e-17
96 2 29.6421 62.419 -5.55112e-17
97 2 5.3348 209.633 -5.55112e-17
98 2 29.8605 188.782 -5.55112e-17
99 1 117.181 7.96995 -5.55112e-17
100 2 158.327 64.9416 -5.55112e-17
101 1 161.974 107.445 -5.55112e-17
102 1 65.0822 164.245 -5.55112e-17
103 2 200.369 92.0264 -5.55112e-17
104 2 94.0681 57.1455 -5.55112e-17
105 1 171.683 37.0613 -5.55112e-17
106 1 195.138 65.2636 -5.55112e-17
107 1 204.894 114.366 -5.55112e-17
108 1 67.2404 201.461 -5.55112e-17
109 2 218.654 38.5591 -5.55112e-17
110 2 145.743 29.9664 -5.55112e-17
111 1 54.7865 93.917 -5.55112e-17
112 2 9.06952 48.9054 -5.55112e-17
113 1 141.707 218.396 -5.55112e-17
114 1 92.7115 91.5428 -5.55112e-17
115 2 38.4026 72.1873 -5.55112e-17
116 2 185.37 17.2517 -5.55112e-17
117 1 154.549 114.33 -5.55112e-17
118 1 85.3922 94.8292 -5.55112e-17
119 2 99.0928 138.937 -5.55112e-17
120 2 200.003 62.7648 -5.55112e-17
121 1 205.95 138.772 -5.55112e-17
122 2 148.176 131.418 -5.55112e-17
123 2 3.45176 131.759 -5.55112e-17
124 1 167.146 205.443 -5.55112e-17
125 1 92.0032 197.333 -5.55112e-17
126 2 80.6322 71.0182 -5.55112e-17
127 2 209.161 109.109 -5.55112e-17
128 1 121.126 105.127 -5.55112e-17
129 1 141.642 188.189 -5.55112e-17
130 2 115.506 54.4562 -5.55112e-17
131 1 113.761 47.2688 -5.55112e-17
132 1 141.488 21.2422 -5.55112e-17
133 1 188.472 104.097 -5.55112e-17
134 1 85.4479 193.813 -5.55112e-17
135 2 179.138 65.9121 -5.55112e-17
136 1 185.349 128.141 -5.55112e-17
137 1 68.7701 7.16036 -5.55112e-17
138 2 146.807 151.105 -5.55112e-17
139 1 120.548 11.0907 -5.55112e-17
140 1 145.34 211.622 -5.55112e-17
141 1 52.6242 72.0698 -5.55112e-17
142 1 212.485 197.33 -5.55112e-17
143 1 27.8443 28.7864 -5.55112e-17
144 1 48.0541 99.2137 -5.55112e-17
145 2 203.145 69.856 -5.55112e-17
146 1 164.94 123.018 -5.55112e-17
147 2 18.9938 136.489 -5.55112e-17
148 1 23.7489 134.154 -5.55112e-17
149 1 156.291 187.768 -5.55112e-17
150 2 72.1327 54.4742 -5.55112e-17
151 1 128.099 138.33 -5.55112e-17
152 1 166.106 153.035 -5.55112e-17
153 2 118.88 129.843 -5.55112e-17
154 1 183.231 59.027 -5.55112e-17
155 2 206.118 43.0943 -5.55112e-17
156 2 102.279 184.103 -5.55112e-17
157 2 169.135 21.8185 -5.55112e-17
158 2 29.1109 6.59468 -5.55112e-17
159 2 9.36062 159.52 -5.55112e-17
160 2 97.3079 56.9146 -5.55112e-17
161 2 132.363 130.577 -5.55112e-17
162 1 17.6792 68.7471 -5.55112e-17
163 1 192.916 42.7956 -5.55112e-17
164 2 115.07 126.754 -5.55112e-17
165 1 50.5255 73.4382 -5.55112e-17
166 2 9.585 196.975 -5.55112e-17
167 1 105.846 169.275 -5.55112e-17
168 1 194.618 111.82 -5.55112e-17
169 2 105.516 207.196 -5.55112e-17
170 1 66.0778 203.508 -5.55112e-17
171 1 136.838 92.0412 -5.55112e-17
172 1 199.445 201.159 -5.55112e-17
173 1 42.9495 200.838 -5.55112e-17
174 2 36.1339 173.867 -5.55112e-17
175 2 52.0173 203.647 -5.55112e-17
176 1 118.712 155.419 -5.55112e-17
177 2 115.456 6.06353 -5.55112e-17
178 1 26.4628 6.70738 -5.55112e-17
179 2 109.382 193.433 -5.55112e-17
180 1 48.433 74.8876 -5.55112e-17
181 1 14.8506 120.722 -5.55112e-17
182 1 91.3353 97.8038 -5.55112e-17
183 1 62.3316 168.274 -5.55112e-17
184 2 167.083 14.0797 -5.55112e-17
185 2 197.449 81.0414 -5.55112e-17
186 2 75.1438 214.808 -5.55112e-17
187 2 164.353 204.933 -5.55112e-17
188 2 53.2299 46.022 -5.55112e-17
189 1 171.166 56.6142 -5.55112e-17
190 1 195.744 46.1941 -5.55112e-17
191 2 36.3519 105.063 -5.55112e-17
192 2 90.1824 82.6201 -5.55112e-17
193 1 106.929 164.432 -5.55112e-17
194 1 27.8998 4.36928 -5.55112e-17
195 2 66.3794 126.092 -5.55112e-17
196 1 0.452838 0.140484 -5.55112e-17
197 2 109.494 45.2033 -5.55112e-17
198 2 208.088 30.8867 -5.55112e-17
199 2 96.1664 172.467 -5.55112e-17
200 2 104.312 43.6934 -5.55112e-17
201 2 103.399 121.657 -5.55112e-17
202 1 65.727 23.9313 -5.55112e-17
203 1 22.9831 49.5163 -5.55112e-17
204 2 46.0561 82.694 -5.55112e-17
205 2 186.392 173.09 -5.55112e-17
206 2 182.057 135.486 -5.55112e-17
207 1 67.7139 184.018 -5.55112e-17
208 2 131.276 60.093 -5.55112e-17
209 2 32.4283 142.759 -5.55112e-17
210 1 173.725 103.605 -5.55112e-17
211 1 200.966 34.6905 -5.55112e-17
212 1 1.72611 94.4134 -5.55112e-17
213 1 127.792 123.609 -5.55112e-17
214 2 13.7921 11.3484 -5.55112e-17
215 1 19.184 139.06 -5.55112e-17
216 1 55.7713 39.6257 -5.55112e-17
217 1 164.174 61.258 -5.55112e-17
218 2 205.546 116.931 -5.55112e-17
219 2 136.338 187.851 -5.55112e-17
220 1 116.142 215.122 -5.55112e-17
221 2 83.4241 16.034 -5.55112e-17
222 1 152.616 147.701 -5.55112e-17
223 1 54.8715 114.288 -5.55112e-17
224 2 146.931 75.7361 -5.55112e-17
225 2 170.444 167.533 -5.55112e-17
226 1 197.841 11.6535 -5.55112e-17
227 2 203.995 216.014 -5.55112e-17
228 2 123.494 47.9751 -5.55112e-17
229 1 39.3193 0.712998 -5.55112e-17
230 1 6.79134 57.2703 -5.55112e-17
231 2 139.748 160.889 -5.55112e-17
232 1 19.1327 202.277 -5.55112e-17
233 2 81.9039 196.75 -5.55112e-17
234 1 2.45789 60.2409 -5.55112e-17
235 1 149.891 105.655 -5.55112e-17
236 2 151.031 51.7534 -5.55112e-17
237 2 104.206 199.129 -5.55112e-17
238 2 94.6623 140.009 -5.55112e-17
239 1 39.6028 215.361 -5.55112e-17
240 1 128.864 90.3861 -5.55112e-17
241 2 5.46586 127.521 -5.55112e-17
242 1 188.715 28.5965 -5.55112e-17
243 2 216.78 128.55 -5.55112e-17
244 2 38.6425 190.236 -5.55112e-17
245 1 152.026 27.3813 -5.55112e-17
246 2 83.8845 89.3325 -5.55112e-17
247 2 187.074 149.017 -5.55112e-17
248 1 31.3122 34.7898 -5.55112e-17
249 1 131.337 107.967 -5.55112e-17
250 1 135.76 27.0372 -5.55112e-17
251 2 112.73 44.8034 -5.55112e-17
252 1 111.236 156.083 -5.55112e-17
253 2 90.906 100.377 -5.55112e-17
254 2 178.41 207.715 -5.55112e-17
255 2 132.926 39.3524 -5.55112e-17
256 1 209.833 183.604 -5.55112e-17
257 2 27.7715 193.548 -5.55112e-17
258 1 212.524 78.3967 -5.55112e-17
259 2 161.845 140.692 -5.55112e-17
260 1 49.5046 181.915 -5.55112e-17
261 2 143.789 176.459 -5.55112e-17
262 2 169.149 113.133 -5.55112e-17
263 2 93.1187 171.055 -5.55112e-17
264 1 198.693 34.5301 -5.55112e-17
265 1 145.462 189.816 -5.55112e-17
266 1 91.1248 193.416 -5.55112e-17
267 2 105.568 16.9454 -5.55112e-17
268 1 2.36026 49.5856 -5.55112e-17
269 2 12.3595 110.725 -5.55112e-17
270 2 177.006 147.246 -5.55112e-17
271 2 193.018 83.6814 -5.55112e-17
272 1 65.9975 13.7212 -5.55112e-17
273 1 71.8271 84.0028 -5.55112e-17
274 1 19.326 206.762 -5.55112e-17
275 1 146.203 109.604 -5.55112e-17
276 1 205.617 74.4642 -5.55112e-17
277 1 110.719 37.8189 -5.55112e-17
278 2 69.5303 152.636 -5.55112e-17
279 2 159.208 86.2062 -5.55112e-17
280 1 114.962 210.587 -5.55112e-17
281 2 163.911 172.989 -5.55112e-17
282 2 73.0632 119.277 -5.55112e-17
283 2 216.836 150.629 -5.55112e-17
284 1 125.32 113.547 -5.55112e-17
285 1 71.7222 165.3 -5.55112e-17
286 2 28.3194 180.824 -5.55112e-17
287 2 105.339 95.4829 -5.55112e-17
288 1 108.613 119.865 -5.55112e-17
289 2 183.682 56.2807 -5.55112e-17
290 1 102.759 17.6284 -5.55112e-17
291 2 93.6004 186.082 -5.55112e-17
292 1 76.0772 123.703 -5.55112e-17
293 1 149.321 151.612 -5.55112e-17
294 1 27.4521 178.435 -5.55112e-17
295 2 45.6987 147.064 -5.55112e-17
296 1 187.459 179.034 -5.55112e-17
297 1 3.89173 18.5577 -5.55112e-17
298 2 29.9076 141.082 -5.55112e-17
299 1 177.801 63.2758 -5.55112e-17
300 2 195.708 197.403 -5.55112e-17
301 2 163.258 20.3042 -5.55112e-17
302 2 162.937 89.1269 -5.55112e-17
303 1 0.498408 151.829 -5.55112e-17
304 1 123.642 106.087 -5.55112e-17
305 1 91.4866 176.94 -5.55112e-17
306 2 86.3738 9.38171 -5.55112e-17
307 2 152.933 163.75 -5.55112e-17
308 2 144.007 22.2019 -5.55112e-17
309 1 71.591 73.3802 -5.55112e-17
310 1 182.745 185.658 -5.55112e-17
311 1 150.383 108.246 -5.55112e-17
312 2 131.018 13.2577 -5.55112e-17
313 2 165.231 28.6621 -5.55112e-17
314 1 200.524 76.6674 -5.55112e-17
315 2 55.8954 102.008 -5.55112e-17
316 1 106.18 55.3421 -5.55112e-17
317 1 134.931 174.346 -5.55112e-17
318 1 214.798 130.07 -5.55112e-17
319 2 83.8543 199.145 -5.55112e-17
320 1 216.845 48.5386 -5.55112e-17
321 1 54.4886 88.7985 -5.55112e-17
322 1 49.7557 150.068 -5.55112e-17
323 2 21.7782 147.433 -5.55112e-17
324 2 14.844 105.863 -5.55112e-17
325 2 217.808 14.0976 -5.55112e-17
326 1 185.871 3.12952 -5.55112e-17
327 1 16.9238 37.2928 -5.55112e-17
328 2 24.1682 211.589 -5.55112e-17
329 2 34.7771 81.7091 -5.55112e-17
330 2 141.786 44.2825 -5.55112e-17
331 2 190.025 73.658 -5.55112e-17
332 2 120.899 114.495 -5.55112e-17
333 2 26.2945 147.721 -5.55112e-17
334 2 217.659 18.6438 -5.55112e-17
335 1 168.411 213.723 -5.55112e-17
336 2 29.4524 147.056 -5.55112e-17
337 2 43.2776 9.83968 -5.55112e-17
338 1 208.544 106.581 -5.55112e-17
339 2 9.59082 151.839 -5.55112e-17
340 2 177.452 216.556 -5.55112e-17
341 2 91.3901 85.5171 -5.55112e-17
342 2 178.245 183.258 -5.55112e-17
343 2 177.394 7.21845 -5.55112e-17
344 1 93.2004 110.127 -5.55112e-17
345 2 32.737 208.642 -5.55112e-17
346 2 84.1864 59.9347 -5.55112e-17
347 1 147.167 97.9809 -5.55112e-17
348 1 182.486 5.98715 -5.55112e-17
349 2 172.558 69.9727 -5.55112e-17
350 2 75.0296 179.143 -5.55112e-17
351 1 175.175 130.877 -5.55112e-17
352 1 210.205 163.112 -5.55112e-17
353 2 144.725 127.091 -5.55112e-17
354 2 182.714 175.652 -5.55112e-17
355 1 213.801 157.03 -5.55112e-17
356 2 110.754 4.62276 -5.55112e-17
357 1 127.698 191.629 -5.55112e-17
358 1 71.6187 32.6118 -5.55112e-17
359 1 36.4755 145.869 -5.55112e-17
360 1 65.2439 17.9373 -5.55112e-17
361 2 200.245 69.0433 -5.55112e-17
362 2 172.565 101.172 -5.55112e-17
363 1 84.018 201.735 -5.55112e-17
364 2 0.871408 47.2872 -5.55112e-17
365 1 3.06326 164.451 -5.55112e-17
366 1 81.8049 173.471 -5.55112e-17
367 1 171.556 107.113 -5.55112e-17
368 1 21.9806 164.301 -5.55112e-17
369 2 81.7688 143.765 -5.55112e-17
370 1 1.51993 138.222 -5.55112e-17
371 2 65.1401 112.746 -5.55112e-17
372 1 71.426 22.725 -5.55112e-17
373 2 113.605 205.056 -5.55112e-17
374 2 178.521 106.16 -5.55112e-17
375 1 137.483 25.292 -5.55112e-17
376 1 117.538 150.079 -5.55112e-17
377 2 104.003 66.3262 -5.55112e-17
378 2 197.418 95.7097 -5.55112e-17
379 2 169.965 184.7 -5.55112e-17
380 1 197.772 25.7333 -5.55112e-17
381 1 174.371 54.6381 -5.55112e-17
382 1 120.748 33.5407 -5.55112e-17
383 1 106.44 106.214 -5.55112e-17
384 2 53.2401 101.45 -5.55112e-17
385 1 57.4079 141.425 -5.55112e-17
386 2 198.64 164.575 -5.55112e-17
387 1 30.1562 104.926 -5.55112e-17
388 1 143.688 164.296 -5.55112e-17
389 2 216.886 120.539 -5.55112e-17
390 1 120.796 60.8026 -5.55112e-17
391 1 203.73 218.695 -5.55112e-17
392 2 16.1351 102.653 -5.55112e-17
393 2 194.843 181.583 -5.55112e-17
394 1 42.2243 205.318 -5.55112e-17
395 1 19.2192 214.622 -5.55112e-17
396 2 76.7154 88.6599 -5.55112e-17
397 1 71.0387 35.2654 -5.55112e-17
398 2 165.135 110.857 -5.55112e-17
399 2 188.563 106.5 -5.55112e-17
400 2 115.232 65.5716 -5.55112e-17
401 2 85.4336 183.149 -5.55112e-17
402 1 84.2041 21.716 -5.55112e-17
403 1 59.4294 108.498 -5.55112e-17
404 2 114.783 9.25457 -5.55112e-17
405 1 58.1267 194.317 -5.55112e-17
406 2 212.471 96.2089 -5.55112e-17
407 1 121.657 81.0821 -5.55112e-17
408 1 131.679 28.0824 -5.55112e-17
409 2 0.525128 119.266 -5.55112e-17
410 2 74.1299 158.85 -5.55112e-17
411 1 136.008 96.6167 -5.55112e-17
412 1 168.289 10.9457 -5.55112e-17
413 1 41.6918 82.6881 -5.55112e-17
414 2 193.101 204.828 -5.55112e-17
415 1 89.8317 117.212 -5.55112e-17
416 1 181.086 56.8758 -5.55112e-17
417 2 104.019 127.638 -5.55112e-17
418 2 32.6168 180.272 -5.55112e-17
419 2 197.192 87.5188 -5.55112e-17
420 2 104.931 57.636 -5.55112e-17
421 1 66.825 31.6104 -5.55112e-17
422 1 38.8773 60.6466 -5.55112e-17
423 2 111.076 124.123 -5.55112e-17
424 2 38.3444 19.4561 -5.55112e-17
425 2 118.817 147.57 -5.55112e-17
426 1 184.224 101.282 -5.55112e-17
427 2 76.6039 64.6767 -5.55112e-17
428 1 26.9914 175.77 -5.55112e-17
429 2 132.145 149.585 -5.55112e-17
430 2 111.471 104.531 -5.55112e-17
431 1 14.4929 8.80379 -5.55112e-17
432 2 174.678 5.87469 -5.55112e-17
433 1 176.231 200.461 -5.55112e-17
434 1 5.64193 200.055 -5.55112e-17
435 1 149.116 85.2585 -5.55112e-17
436 2 71.4325 188.195 -5.55112e-17
437 2 180.255 82.9272 -5.55112e-17
438 2 189.264 173.461 -5.55112e-17
439 2 104.324 22.9416 -5.55112e-17
440 2 6.66067 90.7857 -5.55112e-17
441 1 120.714 172.697 -5.55112e-17
442 1 39.9174 111.907 -5.55112e-17
443 2 80.3923 79.013 -5.55112e-17
444 1 203.441 108.739 -5.55112e-17
445 1 179.824 141.853 -5.55112e-17
446 2 176.043 155.161 -5.55112e-17
447 2 39.9032 37.3474 -5.55112e-17
448 2 183.134 165.161 -5.55112e-17
449 1 41.3538 175.745 -5.55112e-17
450 1 13.8986 131.362 -5.55112e-17
451 1 47.486 2.19055 -5.55112e-17
452 2 210.445 61.1667 -5.55112e-17
453 1 214.769 149.164 -5.55112e-17
454 1 4.94087 69.5394 -5.55112e-17
455 2 67.213 140.792 -5.55112e-17
456 1 77.386 213.786 -5.55112e-17
457 2 139.02 144.895 -5.55112e-17
458 2 147.332 140.898 -5.55112e-17
459 2 135.577 63.0298 -5.55112e-17
460 1 201.494 166.178 -5.55112e-17
461 1 108.879 125.705 -5.55112e-17
462 1 95.9032 188.076 -5.55112e-17
463 2 111.342 213.281 -5.55112e-17
464 2 27.6016 69.9435 -5.55112e-17
465 1 133.662 13.8064 -5.55112e-17
466 2 156.016 130.023 -5.55112e-17
467 2 59.8822 142.557 -5.55112e-17
468 2 123.495 125.792 -5.55112e-17
469 2 59.3722 72.9626 -5.55112e-17
470 2 206.115 154.037 -5.55112e-17
471 2 212.502 212.014 -5.55112e-17
472 2 107.407 35.233 -5.55112e-17
473 2 196.216 215.696 -5.55112e-17
474 2 85.1111 146.84 -5.55112e-17
475 1 163.262 182.936 -5.55112e-17
476 2 175.94 42.8021 -5.55112e-17
477 1 208.859 218.78 -5.55112e-17
478 1 51.0422 196.37 -5.55112e-17
479 2 2.56577 204.419 -5.55112e-17
480 1 79.165 58.1345 -5.55112e-17
481 1 2.74542 209.28 -5.55112e-17
482 2 160.567 176.847 -5.55112e-17
483 1 128.51 204.911 -5.55112e-17
484 1 72.6127 135.737 -5.55112e-17
485 2 9.77876 174.113 -5.55112e-17
486 1 114.1 63.0637 -5.55112e-17
487 1 20.8027 188.336 -5.55112e-17
488 1 51.4875 85.1701 -5.55112e-17
489 1 69.7583 111.409 -5.55112e-17
490 1 163.793 73.1031 -5.55112e-17
491 1 162.29 75.3491 -5.55112e-17
492 2 210.589 15.9705 -5.55112e-17
493 1 90.6325 213.309 -5.55112e-17
494 2 87.077 60.6647 -5.55112e-17
495 1 149.633 92.1129 -5.55112e-17
496 1 49.7729 130.627 -5.55112e-17
497 1 136.215 109.732 -5.55112e-17
498 2 149.897 36.9184 -5.55112e-17
499 2 174.886 133.53 -5.55112e-17
500 2 55.9802 42.4886 -5.55112e-17
501 2 17.5313 141.199 -5.55112e-17
502 2 202.037 123.459 -5.55112e-17
503 2 58.9887 64.8909 -5.55112e-17
504 2 99.392 62.8965 -5.55112e-17
505 2 108.827 207.218 -5.55112e-17
506 1 208.385 7.03051 -5.55112e-17
507 2 43.1908 183.885 -5.55112e-17
508 1 141.663 51.82 -5.55112e-17
509 1 212.177 47.7745 -5.55112e-17
510 1 181.666 96.6459 -5.55112e-17
511 2 105.023 183.376 -5.55112e-17
512 1 35.6153 33.593 -5.55112e-17
513 2 92.3474 182.857 -5.55112e-17
514 2 31.8985 86.1216 -5.55112e-17
515 1 62.5973 99.8717 -5.55112e-17
516 2 106.805 90.7395 -5.55112e-17
517 1 33.7672 149.767 -5.55112e-17
518 2 11.803 13.5754 -5.55112e-17
519 1 124.4 91.82 -5.55112e-17
520 2 10.7609 97.0907 -5.55112e-17
521 2 136.326 34.6615 -5.55112e-17
522 1 188.351 9.42694 -5.55112e-17
523 1 126.837 99.1003 -5.55112e-17
524 2 175.627 16.533 -5.55112e-17
525 2 187.942 63.2799 -5.55112e-17
526 2 89.5247 20.8812 -5.55112e-17
527 1 176.436 28.4812 -5.55112e-17
528 1 1.08658 202.22 -5.55112e-17
529 2 112.405 175.21 -5.55112e-17
530 2 30.2032 83.1391 -5.55112e-17
531 2 177.78 170.302 -5.55112e-17
532 1 87.7251 14.9588 -5.55112e-17
533 2 19.0565 157.495 -5.55112e-17
534 1 20.452 168.463 -5.55112e-17
535 1 169.493 210.821 -5.55112e-17
536 2 14.3095 171.891 -5.55112e-17
537 1 143.351 29.0229 -5.55112e-17
538 1 64.8952 158.898 -5.55112e-17
539 2 78.6971 163.928 -5.55112e-17
540 1 33.3351 182.768 -5.55112e-17
541 1 108.697 130.498 -5.55112e-17
542 1 61.1997 119.395 -5.55112e-17
543 2 125.488 170.295 -5.55112e-17
544 1 218.296 212.02 -5.55112e-17
545 1 173.911 72.2237 -5.55112e-17
546 2 188.049 12.0392 -5.55112e-17
547 1 26.8419 76.5029 -5.55112e-17
548 1 30.1983 4.30602 -5.55112e-17
549 2 26.8508 158.053 -5.55112e-17
550 2 165.863 194.308 -5.55112e-17
551 2 38.0989 14.3614 -5.55112e-17
552 1 32.0717 60.85 -5.55112e-17
553 2 212.705 183.644 -5.55112e-17
554 2 153.092 37.0433 -5.55112e-17
555 2 184.223 138.079 -5.55112e-17
556 1 177.866 213.89 -5.55112e-17
557 1 213.502 54.615 -5.55112e-17
558 1 57.0047 146.865 -5.55112e-17
559 2 108.75 96.5334 -5.55112e-17
560 2 59.0048 90.6903 -5.55112e-17
561 2 108.49 170.192 -5.55112e-17
562 2 109.22 59.6576 -5.55112e-17
563 1 71.9676 168.045 -5.55112e-17
564 2 97.8015 78.0583 -5.55112e-17
565 2 34.5357 62.4358 -5.55112e-17
566 2 68.5135 63.9473 -5.55112e-17
567 1 99.1085 28.8811 -5.55112e-17
568 1 33.4436 73.0977 -5.55112e-17
569 2 142.03 192.166 -5.55112e-17
570 2 12.9532 22.6627 -5.55112e-17
571 2 6.94847 62.7242 -5.55112e-17
572 1 115.22 110.314 -5.55112e-17
573 2 34.7799 90.5402 -5.55112e-17
574 2 166.893 173.805 -5.55112e-17
575 1 196.316 208.53 -5.55112e-17
576 1 21.8993 86.7799 -5.55112e-17
577 1 122.542 72.5445 -5.55112e-17
578 1 192.524 115.748 -5.55112e-17
579 2 184.931 61.621 -5.55112e-17
580 1 110.236 101.872 -5.55112e-17
581 1 91.811 145.99 -5.55112e-17
582 2 124.997 100.954 -5.55112e-17
583 2 98.44 72.5028 -5.55112e-17
584 2 107.612 150.204 -5.55112e-17
585 1 173.794 106.636 -5.55112e-17
586 1 146.783 80.6467 -5.55112e-17
587 1 158.154 110.624 -5.55112e-17
588 2 66.0353 107.428 -5.55112e-17
589 1 212.69 59.6244 -5.55112e-17
590 2 195.708 60.2074 -5.55112e-17
591 2 180.442 18.492 -5.55112e-17
592 1 205.857 130.737 -5.55112e-17
593 1 126.508 89.6916 -5.55112e-17
594 1 7.30113 70.9451 -5.55112e-17
595 1 19.8311 70.2463 -5.55112e-17
596 2 115.957 71.5047 -5.55112e-17
597 2 63.8362 105.06 -5.55112e-17
598 2 135.108 87.328 -5.55112e-17
599 2 94.8132 164.391 -5.55112e-17
600 2 56.1168 104.937 -5.55112e-17
601 1 145.087 107.405 -5.55112e-17
602 1 161.111 54.0756 -5.55112e-17
603 2 214.165 159.464 -5.55112e-17
604 1 40.5566 183.391 -5.55112e-17
605 2 139.604 100.155 -5.55112e-17
606 2 149.756 98.7035 -5.55112e-17
607 2 45.2929 171.029 -5.55112e-17
608 2 129.886 30.1164 -5.55112e-17
609 1 79.1819 89.6098 -5.55112e-17
610 2 96.204 190.97 -5.55112e-17
611 1 217.542 165.444 -5.55112e-17
612 1 209.802 114.21 -5.55112e-17
613 2 211.372 155.863 -5.55112e-17
614 1 201.921 27.455 -5.55112e-17
615 1 151.57 103.753 -5.55112e-17
616 2 145.344 179.64 -5.55112e-17
617 1 169.065 3.87736 -5.55112e-17
618 1 128.19 12.8638 -5.55112e-17
619 1 156.773 154.359 -5.55112e-17
620 2 44.1143 90.4399 -5.55112e-17
621 2 192.877 78.9005 -5.55112e-17
622 2 142.46 148.086 -5.55112e-17
623 2 116.5 142.009 -5.55112e-17
624 1 110.152 167.819 -5.55112e-17
625 2 210.222 79.7198 -5.55112e-17
626 1 205.673 198.079 -5.55112e-17
627 2 190.458 188.28 -5.55112e-17
628 1 119.885 150.042 -5.55112e-17
629 1 34.625 38.067 -5.55112e-17
630 2 137.29 8.96638 -5.55112e-17
631 2 144.564 114.744 -5.55112e-17
632 2 210.62 20.7287 -5.55112e-17
633 2 64.548 128.51 -5.55112e-17
634 2 193.301 73.3946 -5.55112e-17
635 2 95.2781 54.3595 -5.55112e-17
636 1 87.4621 131.107 -5.55112e-17
637 1 215.246 152.614 -5.55112e-17
638 1 126.879 57.9235 -5.55112e-17
639 2 190.716 63.7864 -5.55112e-17
640 2 152.047 74.9578 -5.55112e-17
641 1 216.582 92.684 -5.55112e-17
642 2 157.094 32.8208 -5.55112e-17
643 1 158.32 58.4914 -5.55112e-17
644 2 141.646 156.128 -5.55112e-17
645 2 7.35777 75.858 -5.55112e-17
646 1 168.67 140.951 -5.55112e-17
647 2 126.318 146.234 -5.55112e-17
648 2 190.097 212.024 -5.55112e-17
649 1 57.8171 135.722 -5.55112e-17
650 1 54.0167 155.152 -5.55112e-17
651 1 100.095 131.751 -5.55112e-17
652 2 9.07866 214.415 -5.55112e-17
653 2 191.047 41.0802 -5.55112e-17
654 1 205.878 163.53 -5.55112e-17
655 1 60.4701 43.3409 -5.55112e-17
656 1 200.582 11.5141 -5.55112e-17
657 1 124.643 120.774 -5.55112e-17
658 2 169.62 101.089 -5.55112e-17
659 2 102.923 135.2 -5.55112e-17
660 1 26.442 11.0986 -5.55112e-17
661 2 19.2506 38.0399 -5.55112e-17
662 2 135.142 116.647 -5.55112e-17
663 1 160.1 108.883 -5.55112e-17
664 1 75.5785 128.959 -5.55112e-17
665 1 129.111 145.591 -5.55112e-17
666 1 191.374 166.307 -5.55112e-17
667 1 4.94562 125.037 -5.55112e-17
668 1 135.047 157.266 -5.55112e-17
669 1 107.828 159.96 -5.55112e-17
670 2 209.711 160.176 -5.55112e-17
671 1 5.25459 16.3301 -5.55112e-17
672 1 186.618 158.515 -5.55112e-17
673 2 49.1271 86.7399 -5.55112e-17
674 2 181.597 207.466 -5.55112e-17
675 2 147.614 218.371 -5.55112e-17
676 1 183.77 155.203 -5.55112e-17
677 2 58.3208 58.9798 -5.55112e-17
678 1 92.5553 102.007 -5.55112e-17
679 1 89.0461 52.1442 -5.55112e-17
680 2 69.744 9.54946 -5.55112e-17
681 1 6.35795 9.49197 -5.55112e-17
682 1 142.29 171.665 -5.55112e-17
683 2 90.5034 111.927 -5.55112e-17
684 1 21.3452 181.353 -5.55112e-17
685 1 80.0272 203.918 -5.55112e-17
686 1 137.142 152.226 -5.55112e-17
687 1 110.716 51.9094 -5.55112e-17
688 1 151.786 97.0269 -5.55112e-17
689 2 6.79222 143.553 -5.55112e-17
690 1 58.2719 126.001 -5.55112e-17
691 2 71.0027 116.458 -5.55112e-17
692 2 172.064 182.505 -5.55112e-17
693 1 161.164 95.9834 -5.55112e-17
694 2 136.654 155.147 -5.55112e-17
695 2 182.981 29.7815 -5.55112e-17
696 2 20.903 100.603 -5.55112e-17
697 1 113.269 29.8951 -5.55112e-17
698 2 34.2602 23.0169 -5.55112e-17
699 1 58.3122 198.657 -5.55112e-17
700 2 17.1726 127.479 -5.55112e-17
701 2 29.9726 65.552 -5.55112e-17
702 1 150.108 217.737 -5.55112e-17
703 1 198.459 60.6424 -5.55112e-17
704 1 158.683 130.384 -5.55112e-17
705 1 35.6984 127.963 -5.55112e-17
706 1 74.1591 161.243 -5.55112e-17
707 1 181.92 66.5867 -5.55112e-17
708 2 194.879 109.202 -5.55112e-17
709 1 53.1555 159.848 -5.55112e-17
710 2 104.355 19.8917 -5.55112e-17
711 2 217.615 142.263 -5.55112e-17
712 1 76.4202 1.26133 -5.55112e-17
713 1 2.88461 152.392 -5.55112e-17
714 2 139.266 138.26 -5.55112e-17
715 2 132.446 86.6175 -5.55112e-17
716 1 89.5166 44.8289 -5.55112e-17
717 1 22.3367 62.6737 -5.55112e-17
718 2 80.6482 100.177 -5.55112e-17
719 1 69.4356 194.667 -5.55112e-17
720 2 55.04 203.423 -5.55112e-17
721 2 46.1551 209.972 -5.55112e-17
722 2 62.2627 140.176 -5.55112e-17
723 2 17.4239 168.01 -5.55112e-17
724 2 203.738 106.157 -5.55112e-17
725 2 28.3304 54.1377 -5.55112e-17
726 2 186.672 124.561 -5.55112e-17
727 2 36.6795 108.206 -5.55112e-17
728 1 175.456 77.1512 -5.55112e-17
729 2 166.806 133.638 -5.55112e-17
730 2 177.195 90.5764 -5.55112e-17
731 1 9.96241 23.0807 -5.55112e-17
732 2 103.981 100.869 -5.55112e-17
733 2 150.804 133.794 -5.55112e-17
734 2 59.2319 201.169 -5.55112e-17
735 2 147.314 70.4121 -5.55112e-17
736 1 173.687 184.489 -5.55112e-17
737 2 44.9913 40.1218 -5.55112e-17
738 2 75.4794 211.463 -5.55112e-17
739 2 201.693 128.716 -5.55112e-17
740 2 35.978 116.029 -5.55112e-17
741 2 197.792 108.342 -5.55112e-17
742 1 73.8945 99.6511 -5.55112e-17
743 2 84.9087 73.6595 -5.55112e-17
744 1 155.545 35.0722 -5.55112e-17
745 2 15.1684 73.8864 -5.55112e-17
746 1 0.205924 122.084 -5.55112e-17
747 1 96.6713 162.311 -5.55112e-17
748 2 65.9996 198.888 -5.55112e-17
749 1 210.758 165.873 -5.55112e-17
750 1 141.292 140.132 -5.55112e-17
751 1 142.344 88.7382 -5.55112e-17
752 2 182.972 162.024 -5.55112e-17
753 1 35.1525 180.878 -5.55112e-17
754 2 67.4762 81.7745 -5.55112e-17
755 1 18.8172 77.8884 -5.55112e-17
756 2 173.431 57.1283 -5.55112e-17
757 1 126.582 20.5022 -5.55112e-17
758 2 93.7692 11.3399 -5.55112e-17
759 1 95.1524 133.12 -5.55112e-17
760 1 167.646 64.2186 -5.55112e-17
761 2 213.828 93.3368 -5.55112e-17
762 1 173.88 118.265 -5.55112e-17
763 2 3.98039 157.704 -5.55112e-17
764 2 53.9139 185.516 -5.55112e-17
765 1 16.5355 156.29 -5.55112e-17
766 2 98.4115 69.3413 -5.55112e-17
767 2 205.84 144.844 -5.55112e-17
768 2 80.6842 60.6519 -5.55112e-17
769 2 183.739 98.4848 -5.55112e-17
770 1 133.664 19.2544 -5.55112e-17
771 1 66.0684 65.6746 -5.55112e-17
772 1 125.943 3.72179 -5.55112e-17
773 2 165.928 165.229 -5.55112e-17
774 1 89.7669 87.5175 -5.55112e-17
775 1 100.086 93.9078 -5.55112e-17
776 2 195.711 106.26 -5.55112e-17
777 2 43.2616 84.5853 -5.55112e-17
778 1 69.3081 16.3821 -5.55112e-17
779 1 47.3597 64.52 -5.55112e-17
780 2 76.8091 46.77 -5.55112e-17
781 1 23.6866 172.694 -5.55112e-17
782 2 112.845 161.074 -5.55112e-17
783 1 85.0506 51.6321 -5.55112e-17
784 2 101.217 111.134 -5.55112e-17
785 1 204.107 89.3995 -5.55112e-17
786 1 37.1247 215.21 -5.55112e-17
787 2 39.5248 205.117 -5.55112e-17
788 2 161.284 171.441 -5.55112e-17
789 2 14.3336 151.333 -5.55112e-17
790 2 90.1577 5.89836 -5.55112e-17
791 2 183.035 42.4181 -5.55112e-17
792 1 201.789 133.07 -5.55112e-17
793 1 95.4597 169.865 -5.55112e-17
794 2 210.887 7.33351 -5.55112e-17
795 2 5.22479 189.256 -5.55112e-17
796 1 72.8114 5.12816 -5.55112e-17
797 1 49.9603 31.275 -5.55112e-17
798 1 215.515 56.0084 -5.55112e-17
799 2 106.085 155.128 -5.55112e-17
800 1 47.4701 30.2242 -5.55112e-17
801 2 69.665 85.5877 -5.55112e-17
802 1 80.6518 10.7181 -5.55112e-17
803 1 144.526 24.8724 -5.55112e-17
804 1 209.826 124.983 -5.55112e-17
805 2 188.341 109.69 -5.55112e-17
806 2 173.374 168.103 -5.55112e-17
807 2 211.31 30.9174 -5.55112e-17
808 2 64.9636 148.963 -5.55112e-17
809 1 174.184 68.0342 -5.55112e-17
810 2 21.8509 174.821 -5.55112e-17
811 2 194.764 49.0001 -5.55112e-17
812 1 120.018 187.469 -5.55112e-17
813 1 216.728 81.3439 -5.55112e-17
814 1 6.39476 207.008 -5.55112e-17
815 1 146.942 35.7113 -5.55112e-17
816 1 209.458 51.4277 -5.55112e-17
817 2 64.1192 72.7314 -5.55112e-17
818 2 28.836 123.653 -5.55112e-17
819 2 212.524 68.075 -5.55112e-17
820 1 11.8513 59.4595 -5.55112e-17
821 1 76.6532 44.0945 -5.55112e-17
822 2 131.158 33.2715 -5.55112e-17
823 1 185.906 86.8751 -5.55112e-17
824 1 177.419 95.936 -5.55112e-17
825 1 147.573 193.369 -5.55112e-17
826 2 177.369 82.1226 -5.55112e-17
827 2 102.754 33.058 -5.55112e-17
828 1 52.1184 92.9467 -5.55112e-17
829 2 127.223 92.3662 -5.55112e-17
830 1 1.57386 156.745 -5.55112e-17
831 2 184.078 1.10944 -5.55112e-17
832 2 32.7909 49.7703 -5.55112e-17
833 2 85.8362 27.3662 -5.55112e-17
834 1 69.516 164.037 -5.55112e-17
835 1 183.919 150.049 -5.55112e-17
836 1 149.976 70.5929 -5.55112e-17
837 2 168.832 90.368 -5.55112e-17
838 2 100.419 23.8213 -5.55112e-17
839 1 25.4912 27.6925 -5.55112e-17
840 2 12.5419 118.996 -5.55112e-17
841 2 203.004 11.4107 -5.55112e-17
842 1 186.849 143.029 -5.55112e-17
843 1 205.758 29.3862 -5.55112e-17
844 2 8.44815 29.5491 -5.55112e-17
845 1 45.4054 152.489 -5.55112e-17
846 2 135.896 214.913 -5.55112e-17
847 1 88.5394 143.216 -5.55112e-17
848 2 118.595 5.61541 -5.55112e-17
849 1 22.7807 41.563 -5.55112e-17
850 2 61.423 68.9694 -5.55112e-17
851 2 215.13 33.0581 -5.55112e-17
852 1 133.966 177.019 -5.55112e-17
853 1 188.688 101.32 -5.55112e-17
854 2 103.747 144.142 -5.55112e-17
855 2 168.984 121.156 -5.55112e-17
856 1 73.3069 156.161 -5.55112e-17
857 2 80.9578 116.256 -5.55112e-17