ITEM: TIMESTEP
0
ITEM: NUMBER OF ATOMS
7200
ITEM: BOX BOUNDS xy xz yz pp pp pp
0.0000000000000000e+00 2.1900000000000000e+02 0.0000000000000000e+00
0.0000000000000000e+00 2.1900000000000000e+02 0.0000000000000000e+00
-3.6499999999999999e-01 3.6499999999999999e-01 0.0000000000000000e+00
ITEM: ATOMS id type x y z
1 1 72.7633 130.643 -5.55112e-17
2 2 36.357 62.8169 -5.55112e-17
3 2 183.09 144.757 -5.55112e-17
4 1 138.709 203.344 -5.55112e-17
5 1 124.277 91.9383 -5.55112e-17
6 1 1.70728 212.861 -5.55112e-17
7 2 195.395 19.4744 -5.55112e-17
8 2 11.0597 154.227 -5.55112e-17
9 1 158.555 14.2439 -5.55112e-17
10 2 172.687 184.857 -5.55112e-17
11 2 201.627 29.8333 -5.55112e-17
12 1 211.116 147.555 -5.55112e-17
13 2 118.358 134.94 -5.55112e-17
14 1 8.50988 215.755 -5.55112e-17
15 2 198.582 103.279 -5.55112e-17
16 2 161.538 57.2695 -5.55112e-17
17 1 77.754 178.945 -5.55112e-17
18 2 121.846 131.131 -5.55112e-17
19 1 7.08464 39.133 -5.55112e-17
20 1 201.505 172.158 -5.55112e-17
21 1 23.6303 7.92961 -5.55112e-17
22 2 163.303 135.573 -5.55112e-17
23 2 98.9771 3.52272 -5.55112e-17
24 2 107.144 44.9653 -5.55112e-17
25 2 140.561 5.61294 -5.55112e-17
26 2 164.745 199.703 -5.55112e-17
27 1 7.1503 137.402 -5.55112e-17
28 2 60.5233 175.405 -5.55112e-17
29 2 92.8576 42.8367 -5.55112e-17
30 2 94.2409 93.8242 -5.55112e-17
31 2 8.25448 7.32876 -5.55112e-17
32 1 216.875 175.132 -5.55112e-17
33 2 148.398 31.4751 -5.55112e-17
34 2 28.2312 111.799 -5.55112e-17
35 2 211.803 72.2156 -5.55112e-17
36 1 96.276 185.404 -5.55112e-17
37 1 68.1225 139.846 -5.55112e-17
38 2 176.921 44.4789 -5.55112e-17
39 1 39.5275 23.1211 -5.55112e-17
40 2 137.947 125.666 -5.55112e-17
41 1 79.861 204.819 -5.55112e-17
42 1 53.3446 104.303 -5.55112e-17
43 1 172.279 34.5456 -5.55112e-17
44 1 10.8069 206.381 -5.55112e-17
45 2 53.4647 39.1885 -5.55112e-17
46 1 55.9478 74.1674 -5.55112e-17
47 2 47.1854 99.1136 -5.55112e-17
48 2 211.598 209.191 -5.55112e-17
49 1 110.673 193.53 -5.55112e-17
50 2 19.8831 155.451 -5.55112e-17
51 1 80.9276 160.628 -5.55112e-17
52 1 85.9799 138.608 -5.55112e-17
53 2 109.263 40.9678 -5.55112e-17
54 1 99.5052 101.59 -5.55112e-17
55 2 213.438 212.14 -5.55112e-17
56 1 84.4292 37.5037 -5.55112e-17
57 2 47.429 207.374 -5.55112e-17
58 1 147.821 78.8916 -5.55112e-17
59 1 44.7267 52.4135 -5.55112e-17
60 2 107.363 144.871 -5.55112e-17
61 1 87.1009 43.6073 -5.55112e-17
62 1 126.47 3.21523 -5.55112e-17
63 2 157.006 157.15 -5.55112e-17
64 1 16.5194 82.2212 -5.55112e-17
65 2 199.057 145.475 -5.55112e-17
66 2 27.1198 166.087 -5.55112e-17
67 2 20.3888 46.0644 -5.55112e-17
68 1 144.063 108.215 -5.55112e-17
69 2 145.012 141.474 -5.55112e-17
70 1 101.714 92.3866 -5.55112e-17
71 1 94.4774 167.406 -5.55112e-17
72 2 34.5398 151.95 -5.55112e-17
73 2 194.336 34.9125 -5.55112e-17
74 2 206.686 16.7853 -5.55112e-17
75 1 183.344 156.373 -5.55112e-17
76 2 135.188 11.456 -5.55112e-17
77 2 98.5886 6.39163 -5.55112e-17
78 1 38.3936 34.4808 -5.55112e-17
79 2 147.82 12.9762 -5.55112e-17
80 1 43.6489 107.115 -5.55112e-17
81 1 150.474 208.439 -5.55112e-17
82 1 163.332 171.27 -5.55112e-17
83 1 171.497 89.1433 -5.55112e-17
84 2 34.0685 58.0939 -5.55112e-17
85 2 216.034 164.481 -5.55112e-17
86 2 21.5162 87.8996 -5.55112e-17
87 2 33.9457 95.9261 -5.55112e-17
88 1 110.52 154.838 -5.55112e-17
89 2 166.278 34.3697 -5.55112e-17
90 2 164.828 91.7786 -5.55112e-17
91 2 34.7439 204.768 -5.55112e-17
92 1 18.0648 183.433 -5.55112e-17
93 2 39.0167 200.969 -5.55112e-17
94 2 213.213 61.2976 -5.55112e-17
95 1 138.121 71.1161 -5.55112e-17
96 2 190.386 143.034 -5.55112e-17
97 2 113.692 212.451 -5.55112e-17
98 2 137.309 122.645 -5.55112e-17
99 1 121.164 68.1797 -5.55112e-17
100 2 155.665 169.133 -5.55112e-17
101 1 201.707 111.223 -5.55112e-17
102 1 113.132 148.605 -5.55112e-17
103 2 79.4796 107.191 -5.55112e-17
104 2 44.0911 207.178 -5.55112e-17
105 1 189.792 51.3621 -5.55112e-17
106 1 126.789 192.743 -5.55112e-17
107 1 42.4879 58.582 -5.55112e-17
108 1 148.075 86.6731 -5.55112e-17
109 2 13.3539 134.433 -5.55112e-17
110 2 124.604 204.283 -5.55112e-17
111 1 180.186 113.853 -5.55112e-17
112 2 171.089 54.7383 -5.55112e-17
113 1 56.4092 0.520805 -5.55112e-17
114 1 171.989 76.8553 -5.55112e-17
115 2 195.815 189.029 -5.55112e-17
116 2 42.4771 27.0296 -5.55112e-17
117 1 105.592 52.3161 -5.55112e-17
118 1 8.58152 191.487 -5.55112e-17
119 2 149.753 77.312 -5.55112e-17
120 2 178.263 37.7227 -5.55112e-17
121 1 120.747 63.041 -5.55112e-17
122 2 180.086 167.195 -5.55112e-17
123 2 40.1704 151.708 -5.55112e-17
124 1 144.005 145.962 -5.55112e-17
125 1 204.845 98.2897 -5.55112e-17
126 2 6.03876 63.6086 -5.55112e-17
127 2 162.661 130.755 -5.55112e-17
128 1 69.2106 69.0936 -5.55112e-17
129 1 22.6889 76.2515 -5.55112e-17
130 2 94.3119 20.3154 -5.55112e-17
131 1 44.8266 59.4231 -5.55112e-17
132 1 210.79 198.138 -5.55112e-17
133 1 160.722 115.724 -5.55112e-17
134 1 170.319 15.4932 -5.55112e-17
135 2 37.8709 29.7263 -5.55112e-17
136 1 32.4198 29.3326 -5.55112e-17
137 1 192.703 10.3923 -5.55112e-17
138 2 140.903 112.526 -5.55112e-17
139 1 108.687 104.368 -5.55112e-17
140 1 17.3031 204.375 -5.55112e-17
141 1 33.5287 156.498 -5.55112e-17
142 1 202.354 98.4022 -5.55112e-17
143 1 17.529 108.687 -5.55112e-17
144 1 104.598 54.7876 -5.55112e-17
145 2 173.639 208.285 -5.55112e-17
146 1 165.833 181.005 -5.55112e-17
147 2 55.45 108.661 -5.55112e-17
148 1 50.4457 35.1901 -5.55112e-17
149 1 58.0856 162.182 -5.55112e-17
150 2 71.4462 207.749 -5.55112e-17
151 1 133.217 118.17 -5.55112e-17
152 1 13.0664 147.428 -5.55112e-17
153 2 75.6133 7.12635 -5.55112e-17
154 1 58.9096 75.114 -5.55112e-17
155 2 207.755 4.29526 -5.55112e-17
156 2 118.82 161.231 -5.55112e-17
157 2 75.7923 198.165 -5.55112e-17
158 2 216.905 77.4513 -5.55112e-17
159 2 116.376 185.302 -5.55112e-17
160 2 182.683 7.99792 -5.55112e-17
161 2 155.062 49.8359 -5.55112e-17
162 1 140.369 198.381 -5.55112e-17
163 1 65.1122 154.944 -5.55112e-17
164 2 89.9123 127.991 -5.55112e-17
165 1 14.4259 158.284 -5.55112e-17
166 2 145.344 206.652 -5.55112e-17
167 1 170.625 36.3455 -5.55112e-17
168 1 57.8058 37.7601 -5.55112e-17
169 2 25.3872 168.777 -5.55112e-17
170 1 28.8971 193.979 -5.55112e-17
171 1 56.374 116.836 -5.55112e-17
172 1 42.3569 172.401 -5.55112e-17
173 1 205.785 50.2288 -5.55112e-17
174 2 77.7106 78.3372 -5.55112e-17
175 2 26.4605 171.596 -5.55112e-17
176 1 41.0632 177.391 -5.55112e-17
177 2 75.8727 47.7978 -5.55112e-17
178 1 58.505 103.997 -5.55112e-17
179 2 2.55535 55.2712 -5.55112e-17
180 1 105.462 185.377 -5.55112e-17
181 1 167.874 147.818 -5.55112e-17
182 1 96.9641 102.975 -5.55112e-17
183 1 51.24 125.423 -5.55112e-17
184 2 121.987 162.321 -5.55112e-17
185 2 162.523 31.5003 -5.55112e-17
186 2 84.684 42.3765 -5.55112e-17
187 2 194.192 186.42 -5.55112e-17
188 2 204.654 154.014 -5.55112e-17
189 1 62.2045 180.435 -5.55112e-17
190 1 102.178 55.3977 -5.55112e-17
191 2 8.301 61.0274 -5.55112e-17
192 2 39.0152 72.6275 -5.55112e-17
193 1 146.858 194.918 -5.55112e-17
194 1 27.6163 216.46 -5.55112e-17
195 2 83.9169 148.581 -5.55112e-17
196 1 178.924 138.304 -5.55112e-17
197 2 163.973 55.0934 -5.55112e-17
198 2 130.718 90.4175 -5.55112e-17
199 2 122.356 90.3326 -5.55112e-17
200 2 139.03 165.883 -5.55112e-17
201 2 29.2967 59.2215 -5.55112e-17
202 1 167.901 207.095 -5.55112e-17
203 1 55.8582 209.748 -5.55112e-17
204 2 2.08108 205.041 -5.55112e-17
205 2 67.9343 170.104 -5.55112e-17
206 2 174.344 23.4821 -5.55112e-17
207 1 209.128 188.352 -5.55112e-17
208 2 183.59 80.2517 -5.55112e-17
209 2 12.5152 53.8344 -5.55112e-17
210 1 25.4338 156.049 -5.55112e-17
211 1 94.3674 121.097 -5.55112e-17
212 1 39.6537 107.817 -5.55112e-17
213 1 175.505 184.219 -5.55112e-17
214 2 133.68 213.362 -5.55112e-17
215 1 158.841 55.8329 -5.55112e-17
216 1 117.24 85.5063 -5.55112e-17
217 1 34.8605 84.7627 -5.55112e-17
218 2 121.846 108.73 -5.55112e-17
219 2 38.2341 123.046 -5.55112e-17
220 1 116.698 44.9838 -5.55112e-17
221 2 108.935 31.2997 -5.55112e-17
222 1 159.258 45.8806 -5.55112e-17
223 1 159.812 99.9638 -5.55112e-17
224 2 93.0512 53.0529 -5.55112e-17
225 2 84.772 81.0505 -5.55112e-17
226 1 84.2695 5.06838 -5.55112e-17
227 2 55.2276 19.0863 -5.55112e-17
228 2 116.85 182.265 -5.55112e-17
229 1 160.36 20.9882 -5.55112e-17
230 1 80.5528 196.378 -5.55112e-17
231 2 117.168 76.3366 -5.55112e-17
232 1 151.179 171.18 -5.55112e-17
233 2 86.2302 167.099 -5.55112e-17
234 1 29.2102 158.379 -5.55112e-17
235 1 90.4894 27.8123 -5.55112e-17
236 2 188.93 122.198 -5.55112e-17
237 2 70.9026 101.35 -5.55112e-17
238 2 99.6094 123.134 -5.55112e-17
239 1 187.773 204.366 -5.55112e-17
240 1 95.2044 110.556 -5.55112e-17
241 2 199.596 198.017 -5.55112e-17
242 1 95.8402 149.407 -5.55112e-17
243 2 122.913 143.244 -5.55112e-17
244 2 66.0882 193.191 -5.55112e-17
245 1 96.6202 73.4159 -5.55112e-17
246 2 122.137 83.131 -5.55112e-17
247 2 166.994 29.6245 -5.55112e-17
248 1 18.6468 131.722 -5.55112e-17
249 1 19.7569 60.694 -5.55112e-17
250 1 96.1163 190.925 -5.55112e-17
251 2 79.0163 199.048 -5.55112e-17
252 1 138.996 145.038 -5.55112e-17
253 2 206.88 200.825 -5.55112e-17
254 2 63.535 0.838421 -5.55112e-17
255 2 182.213 109.189 -5.55112e-17
256 1 26.8748 47.6541 -5.55112e-17
257 2 211.477 188.809 -5.55112e-17
258 1 214.266 70.4167 -5.55112e-17
259 2 143.991 202.311 -5.55112e-17
260 1 196.777 146.745 -5.55112e-17
261 2 119.177 156.517 -5.55112e-17
262 2 155.458 98.5778 -5.55112e-17
263 2 135.222 215.943 -5.55112e-17
264 1 39.0003 125.652 -5.55112e-17
265 1 166.487 154.69 -5.55112e-17
266 1 66.3728 93.201 -5.55112e-17
267 2 17.8516 153.078 -5.55112e-17
268 1 48.5989 101.151 -5.55112e-17
269 2 43.5877 134.862 -5.55112e-17
270 2 169.768 164.29 -5.55112e-17
271 2 170.966 24.6868 -5.55112e-17
272 1 61.5159 34.1654 -5.55112e-17
273 1 216.275 190.118 -5.55112e-17
274 1 174.714 76.2 -5.55112e-17
275 1 157.797 131.103 -5.55112e-17
276 1 202.402 71.878 -5.55112e-17
277 1 58.2803 41.5483 -5.55112e-17
278 2 167.635 131.985 -5.55112e-17
279 2 23.4059 36.4048 -5.55112e-17
280 1 183.796 13.1097 -5.55112e-17
281 2 10.7084 188.895 -5.55112e-17
282 2 199.924 106.494 -5.55112e-17
283 2 156.502 166.216 -5.55112e-17
284 1 7.0885 128.156 -5.55112e-17
285 1 183.033 63.1188 -5.55112e-17
286 2 106.3 103.112 -5.55112e-17
287 2 57.8634 16.9056 -5.55112e-17
288 1 127.927 178.844 -5.55112e-17
289 2 114.318 39.835 -5.55112e-17
290 1 45.9309 159.005 -5.55112e-17
291 2 192.366 40.399 -5.55112e-17
292 1 64.3991 28.5727 -5.55112e-17
293 1 216.864 86.3788 -5.55112e-17
294 1 182.264 72.793 -5.55112e-17
295 2 193.971 191.251 -5.55112e-17
296 1 136.381 148.125 -5.55112e-17
297 1 131.338 155.501 -5.55112e-17
298 2 121.761 184.348 -5.55112e-17
299 1 218.234 118.816 -5.55112e-17
300 2 118.691 20.3593 -5.55112e-17
301 2 56.6746 185.638 -5.55112e-17
302 2 29.8986 23.6472 -5.55112e-17
303 1 29.5747 11.3347 -5.55112e-17
304 1 104.451 117.705 -5.55112e-17
305 1 117.782 158.696 -5.55112e-17
306 2 214.882 106.329 -5.55112e-17
307 2 93.0761 128.21 -5.55112e-17
308 2 18.1102 196.148 -5.55112e-17
309 1 75.5576 129.907 -5.55112e-17
310 1 186.542 74.2043 -5.55112e-17
311 1 49.1952 202.205 -5.55112e-17
312 2 80.8642 128.074 -5.55112e-17
313 2 128.149 174.294 -5.55112e-17
314 1 32.3699 6.54915 -5.55112e-17
315 2 127.174 0.781678 -5.55112e-17
316 1 104.921 77.7541 -5.55112e-17
317 1 200.346 64.4326 -5.55112e-17
318 1 126.329 116.575 -5.55112e-17
319 2 38.6693 39.3522 -5.55112e-17
320 1 177.78 187.132 -5.55112e-17
321 1 129.115 176.581 -5.55112e-17
322 1 27.393 24.4069 -5.55112e-17
323 2 78.6157 59.8728 -5.55112e-17
324 2 3.09262 77.9527 -5.55112e-17
325 2 208.202 64.0027 -5.55112e-17
326 1 152.503 40.0834 -5.55112e-17
327 1 71.5961 149.372 -5.55112e-17
328 2 0.958715 132.894 -5.55112e-17
329 2 33.0368 181.7 -5.55112e-17
330 2 74.9929 98.3144 -5.55112e-17
331 2 61.8066 205.694 -5.55112e-17
332 2 146.724 166.014 -5.55112e-17
333 2 187.88 201.676 -5.55112e-17
334 2 69.1141 10.6894 -5.55112e-17
335 1 73.1225 209.649 -5.55112e-17
336 2 65.7155 202.757 -5.55112e-17
337 2 116.067 171.831 -5.55112e-17
338 1 191.5 217.284 -5.55112e-17
339 2 98.1875 45.1312 -5.55112e-17
340 2 195.217 180.839 -5.55112e-17
341 2 28.9799 136.702 -5.55112e-17
342 2 127.369 107.31 -5.55112e-17
343 2 6.89262 193.882 -5.55112e-17
344 1 49.9897 89.2354 -5.55112e-17
345 2 64.2839 188.666 -5.55112e-17
346 2 10.8029 100.056 -5.55112e-17
347 1 171.722 12.0467 -5.55112e-17
348 1 70.978 15.8966 -5.55112e-17
349 2 113.76 133.095 -5.55112e-17
350 2 123.355 116.113 -5.55112e-17
351 1 157.174 48.3602 -5.55112e-17
352 1 99.5371 96.5932 -5.55112e-17
353 2 156.884 87.6282 -5.55112e-17
354 2 174.61 145.426 -5.55112e-17
355 1 10.6611 15.2632 -5.55112e-17
356 2 101.448 192.754 -5.55112e-17
357 1 105.709 59.0874 -5.55112e-17
358 1 144.448 22.9503 -5.55112e-17
359 1 9.14054 126.125 -5.55112e-17
360 1 16.8882 87.8189 -5.55112e-17
361 2 128.327 27.0389 -5.55112e-17
362 2 167.059 128.856 -5.55112e-17
363 1 2.77952 80.652 -5.55112e-17
364 2 61.3832 126.644 -5.55112e-17
365 1 165.969 136.392 -5.55112e-17
366 1 99.7215 30.6253 -5.55112e-17
367 1 88.8343 125.122 -5.55112e-17
368 1 20.7065 179.564 -5.55112e-17
369 2 214.415 56.5445 -5.55112e-17
370 1 86.9659 120.487 -5.55112e-17
371 2 188.343 129.85 -5.55112e-17
372 1 10.6633 147.012 -5.55112e-17
373 2 176.744 193.966 -5.55112e-17
374 2 206.18 147.163 -5.55112e-17
375 1 117.092 54.3385 -5.55112e-17
376 1 110.145 86.9026 -5.55112e-17
377 2 31.7528 129.499 -5.55112e-17
378 2 187.066 59.2928 -5.55112e-17
379 2 171.685 96.5769 -5.55112e-17
380 1 43.1428 66.5274 -5.55112e-17
381 1 154.357 190.355 -5.55112e-17
382 1 88.3592 198.133 -5.55112e-17
383 1 62.1319 177.84 -5.55112e-17
384 2 19.376 85.8751 -5.55112e-17
385 1 9.49351 217.772 -5.55112e-17
386 2 214.095 174.597 -5.55112e-17
387 1 25.9554 150.597 -5.55112e-17
388 1 198.919 168.363 -5.55112e-17
389 2 166.806 87.0829 -5.55112e-17
390 1 199.458 182.022 -5.55112e-17
391 1 136.593 90.434 -5.55112e-17
392 2 207.449 54.5328 -5.55112e-17
393 2 218.837 163.432 -5.55112e-17
394 1 56.309 62.0215 -5.55112e-17
395 1 37.9416 153.458 -5.55112e-17
396 2 192.181 125.953 -5.55112e-17
397 1 63.0937 193.491 -5.55112e-17
398 2 129.615 32.3712 -5.55112e-17
399 2 214.027 39.8966 -5.55112e-17
400 2 115.632 130.659 -5.55112e-17
401 2 37.7907 105.719 -5.55112e-17
402 1 105.099 187.6 -5.55112e-17
403 1 79.0613 72.6647 -5.55112e-17
404 2 192.919 21.1115 -5.55112e-17
405 1 40.2421 14.6638 -5.55112e-17
406 2 144.204 195.373 -5.55112e-17
407 1 51.2171 178.834 -5.55112e-17
408 1 131.002 95.9756 -5.55112e-17
409 2 195.38 203.696 -5.55112e-17
410 2 15.2603 197.628 -5.55112e-17
411 1 91.5682 138.816 -5.55112e-17
412 1 18.2263 44.2631 -5.55112e-17
413 1 79.4496 13.3273 -5.55112e-17
414 2 192.246 181.533 -5.55112e-17
415 1 136.632 19.8832 -5.55112e-17
416 1 89.9422 15.7428 -5.55112e-17
417 2 165.691 148.681 -5.55112e-17
418 2 18.0062 110.943 -5.55112e-17
419 2 218.947 41.3432 -5.55112e-17
420 2 186.472 87.4243 -5.55112e-17
421 1 175.195 30.5463 -5.55112e-17
422 1 97.6748 199.374 -5.55112e-17
423 2 167.233 119.925 -5.55112e-17
424 2 70.4659 138.638 -5.55112e-17
425 2 0.401886 82.2382 -5.55112e-17
426 1 12.3237 88.3238 -5.55112e-17
427 2 34.2619 73.6097 -5.55112e-17
428 1 1.94079 196.669 -5.55112e-17
429 2 113.712 65.2526 -5.55112e-17
430 2 213.205 81.6642 -5.55112e-17
431 1 100.794 7.89089 -5.55112e-17
432 2 153.577 161.052 -5.55112e-17
433 1 112.845 153.509 -5.55112e-17
434 1 206.302 2.20918 -5.55112e-17
435 1 124.756 59.9926 -5.55112e-17
436 2 67.6878 211.182 -5.55112e-17
437 2 107.638 4.20217 -5.55112e-17
438 2 135.594 3.99372 -5.55112e-17
439 2 108.52 147.653 -5.55112e-17
440 2 15.157 194.372 -5.55112e-17
441 1 111.149 203.881 -5.55112e-17
442 1 56.2287 207.25 -5.55112e-17
443 2 129.494 7.98786 -5.55112e-17
444 1 101.22 127.919 -5.55112e-17
445 1 48.8174 188.96 -5.55112e-17
446 2 180.403 71.2561 -5.55112e-17
447 2 66.1587 138.371 -5.55112e-17
448 2 119.42 212.709 -5.55112e-17
449 1 142.271 67.7834 -5.55112e-17
450 1 197.335 12.6678 -5.55112e-17
451 1 86.2017 39.2752 -5.55112e-17
452 2 139.621 135.54 -5.55112e-17
453 1 208.656 96.2166 -5.55112e-17
454 1 10.4195 107.252 -5.55112e-17
455 2 165.39 74.1196 -5.55112e-17
456 1 21.7609 143.572 -5.55112e-17
457 2 81.7834 150.955 -5.55112e-17
458 2 27.2968 131.609 -5.55112e-17
459 2 8.56683 55.629 -5.55112e-17
460 1 160.463 12.3544 -5.55112e-17
461 1 144.331 97.5615 -5.55112e-17
462 1 52.0743 198.516 -5.55112e-17
463 2 84.3456 121.672 -5.55112e-17
464 2 162.18 18.5548 -5.55112e-17
465 1 35.4456 116.147 -5.55112e-17
466 2 200.869 195.08 -5.55112e-17
467 2 46.7996 13.5146 -5.55112e-17
468 2 156.113 154.438 -5.55112e-17
469 2 164.253 176.292 -5.55112e-17
470 2 20.5437 150.667 -5.55112e-17
471 2 148.911 63.5856 -5.55112e-17
472 2 13.1274 207.739 -5.55112e-17
473 2 86.16 203.181 -5.55112e-17
474 2 117.454 0.79678 -5.55112e-17
475 1 188.774 88.1042 -5.55112e-17
476 2 111.559 134.81 -5.55112e-17
477 1 207.92 14.3549 -5.55112e-17
478 1 48.7176 139.365 -5.55112e-17
479 2 111.246 45.5017 -5.55112e-17
480 1 104.004 104.182 -5.55112e-17
481 1 111.051 147.233 -5.55112e-17
482 2 32.0409 53.2379 -5.55112e-17
483 1 80.8378 31.3708 -5.55112e-17
484 1 7.22878 2.68962 -5.55112e-17
485 2 174.721 34.786 -5.55112e-17
486 1 202.156 94.3152 -5.55112e-17
487 1 98.704 163.754 -5.55112e-17
488 1 200.754 32.2628 -5.55112e-17
489 1 116.846 40.7826 -5.55112e-17
490 1 68.3987 41.8922 -5.55112e-17
491 1 58.7101 63.0569 -5.55112e-17
492 2 112.882 156.072 -5.55112e-17
493 1 75.225 120.266 -5.55112e-17
494 2 157.615 31.0971 -5.55112e-17
495 1 134.222 84.5744 -5.55112e-17
496 1 67.539 25.5202 -5.55112e-17
497 1 33.0661 114.99 -5.55112e-17
498 2 178.472 157.145 -5.55112e-17
499 2 144.369 10.075 -5.55112e-17
500 2 25.5605 14.1946 -5.55112e-17
501 2 178.441 206.557 -5.55112e-17
502 2 124.608 169.559 -5.55112e-17
503 2 102.361 48.2026 -5.55112e-17
504 2 92.1836 106.06 -5.55112e-17
505 2 115.858 179.512 -5.55112e-17
506 1 162.718 42.2098 -5.55112e-17
507 2 62.2132 27.0509 -5.55112e-17
508 1 193.242 188.831 -5.55112e-17
509 1 160.744 103.841 -5.55112e-17
510 1 156.832 104.369 -5.55112e-17
511 2 86.9128 123.048 -5.55112e-17
512 1 197.107 87.4746 -5.55112e-17
513 2 143.529 209.197 -5.55112e-17
514 2 192.019 104.51 -5.55112e-17
515 1 105.864 154.82 -5.55112e-17
516 2 1.63655 102.279 -5.55112e-17
517 1 109.835 130.004 -5.55112e-17
518 2 15.648 176.281 -5.55112e-17
519 1 64.3682 95.0422 -5.55112e-17
520 2 119.517 206.924 -5.55112e-17
521 2 211.894 69.2507 -5.55112e-17
522 1 199.475 60.0717 -5.55112e-17
523 1 53.454 159.55 -5.55112e-17
524 2 110.395 145.038 -5.55112e-17
525 2 182.287 32.6919 -5.55112e-17
526 2 155.092 135.257 -5.55112e-17
527 1 154.052 167.234 -5.55112e-17
528 1 35.8355 165.705 -5.55112e-17
529 2 67.045 22.8636 -5.55112e-17
530 2 79.07 39.8284 -5.55112e-17
531 2 166.554 9.39615 -5.55112e-17
532 1 179.943 124.009 -5.55112e-17
533 2 148.254 130.997 -5.55112e-17
534 1 108.601 80.3932 -5.55112e-17
535 1 218.395 33.7215 -5.55112e-17
536 2 68.9574 182.531 -5.55112e-17
537 1 81.7816 122.715 -5.55112e-17
538 1 126.842 146.658 -5.55112e-17
539 2 53.365 185.367 -5.55112e-17
540 1 20.3449 184.721 -5.55112e-17
541 1 82.6563 75.9586 -5.55112e-17
542 1 189.417 71.187 -5.55112e-17
543 2 143.557 45.7125 -5.55112e-17
544 1 78.6642 117.183 -5.55112e-17
545 1 218.603 189.324 -5.55112e-17
546 2 8.08919 134.766 -5.55112e-17
547 1 149.948 168.872 -5.55112e-17
548 1 123.942 185.87 -5.55112e-17
549 2 59.3218 30.6497 -5.55112e-17
550 2 10.304 164.755 -5.55112e-17
551 2 94.9207 55.3045 -5.55112e-17
552 1 166.271 81.7767 -5.55112e-17
553 2 76.9958 188.881 -5.55112e-17
554 2 44.8141 9.39678 -5.55112e-17
555 2 207.114 84.0053 -5.55112e-17
556 1 136.893 33.146 -5.55112e-17
557 1 100.274 142.515 -5.55112e-17
558 1 162.114 186.841 -5.55112e-17
559 2 136.38 150.897 -5.55112e-17
560 2 88.9623 20.4471 -5.55112e-17
561 2 117.286 98.4309 -5.55112e-17
562 2 195.758 172.317 -5.55112e-17
563 1 123.613 137.799 -5.55112e-17
564 2 126.983 151.591 -5.55112e-17
565 2 15.0688 17.1864 -5.55112e-17
566 2 141.168 195.753 -5.55112e-17
567 1 182.851 70.1496 -5.55112e-17
568 1 194.656 206.198 -5.55112e-17
569 2 5.68164 200.956 -5.55112e-17
570 2 122.893 33.109 -5.55112e-17
571 2 2.01461 193.706 -5.55112e-17
572 1 174.638 46.0181 -5.55112e-17
573 2 47.8319 68.4315 -5.55112e-17
574 2 195.436 30.2443 -5.55112e-17
575 1 35.6767 87.1581 -5.55112e-17
576 1 124.142 3.26821 -5.55112e-17
577 1 115.35 109.29 -5.55112e-17
578 1 73.6258 145.874 -5.55112e-17
579 2 167.734 24.4341 -5.55112e-17
580 1 125.335 142.43 -5.55112e-17
581 1 122.487 146.036 -5.55112e-17
582 2 137.536 186.552 -5.55112e-17
583 2 98.7473 155.132 -5.55112e-17
584 2 118.768 119.436 -5.55112e-17
585 1 187.333 217.98 -5.55112e-17
586 1 145.345 138.895 -5.55112e-17
587 1 19.705 48.4511 -5.55112e-17
588 2 50.8429 6.60056 -5.55112e-17
589 1 183.973 163.455 -5.55112e-17
590 2 34.6506 98.9839 -5.55112e-17
591 2 55.6829 56.9662 -5.55112e-17
592 1 73.7764 158.916 -5.55112e-17
593 1 146.49 129.058 -5.55112e-17
594 1 44.3765 23.157 -5.55112e-17
595 1 115.697 123.504 -5.55112e-17
596 2 56.0401 163.87 -5.55112e-17
597 2 52.3506 65.0592 -5.55112e-17
598 2 213.435 138.342 -5.55112e-17
599 2 168.629 158.977 -5.55112e-17
600 2 78.0615 174.302 -5.55112e-17
601 1 80.6755 87.2235 -5.55112e-17
602 1 78.6206 54.1743 -5.55112e-17
603 2 102.014 110.816 -5.55112e-17
604 1 130.565 52.476 -5.55112e-17
605 2 164.122 16.3049 -5.55112e-17
606 2 203.283 51.0747 -5.55112e-17
607 2 16.8252 173.562 -5.55112e-17
608 2 102.762 180.318 -5.55112e-17
609 1 190.881 198.449 -5.55112e-17
610 2 113.529 49.8118 -5.55112e-17
611 1 20.5327 41.0259 -5.55112e-17
612 1 42.0947 214.1 -5.55112e-17
613 2 7.11087 19.0715 -5.55112e-17
614 1 195.519 178.123 -5.55112e-17
615 1 147.722 118.965 -5.55112e-17
616 2 47.7682 121.396 -5.55112e-17
617 1 188.718 135.782 -5.55112e-17
618 1 75.5421 110.675 -5.55112e-17
619 1 126.632 100.523 -5.55112e-17
620 2 211.311 2.86729 -5.55112e-17
621 2 194.364 38.2269 -5.55112e-17
622 2 93.5785 131.14 -5.55112e-17
623 2 86.5349 141.486 -5.55112e-17
624 1 131.459 55.8058 -5.55112e-17
625 2 186.049 149.486 -5.55112e-17
626 1 66.1259 167.962 -5.55112e-17
627 2 6.68643 158.16 -5.55112e-17
628 1 203.123 156.497 -5.55112e-17
629 1 12.5742 193.656 -5.55112e-17
630 2 138.199 30.5398 -5.55112e-17
631 2 193.848 100.434 -5.55112e-17
632 2 31.3477 56.5401 -5.55112e-17
633 2 41.0634 41.8944 -5.55112e-17
634 2 150.309 112.434 -5.55112e-17
635 2 194.139 128.974 -5.55112e-17
636 1 48.3802 71.0773 -5.55112e-17
637 1 164.59 114.354 -5.55112e-17
638 1 151.559 56.0948 -5.55112e-17
639 2 183.066 96.5747 -5.55112e-17
640 2 140.638 132.767 -5.55112e-17
641 1 26.5255 206.628 -5.55112e-17
642 2 177.945 6.13879 -5.55112e-17
643 1 153.239 33.2046 -5.55112e-17
644 2 134.437 191.367 -5.55112e-17
645 2 101.998 177.306 -5.55112e-17
646 1 194.308 183.402 -5.55112e-17
647 2 128.015 141.19 -5.55112e-17
648 2 129.564 163.208 -5.55112e-17
649 1 149.207 173.39 -5.55112e-17
650 1 80.8449 174.998 -5.55112e-17
651 1 3.71162 104.221 -5.55112e-17
652 2 29.7527 106.285 -5.55112e-17
653 2 99.2956 119.961 -5.55112e-17
654 1 143.736 148.348 -5.55112e-17
655 1 184.018 15.4729 -5.55112e-17
656 1 180.14 16.9266 -5.55112e-17
657 1 192.71 193.233 -5.55112e-17
658 2 205.298 166.885 -5.55112e-17
659 2 135.345 210.734 -5.55112e-17
660 1 140.547 38.7354 -5.55112e-17
661 2 83.5279 165.356 -5.55112e-17
662 2 60.1002 153.584 -5.55112e-17
663 1 72.8913 82.7193 -5.55112e-17
664 1 155.001 119.179 -5.55112e-17
665 1 128.949 197.34 -5.55112e-17
666 1 105.92 6.05667 -5.55112e-17
667 1 159.347 70.4972 -5.55112e-17
668 1 88.475 165.19 -5.55112e-17
669 1 144.034 216.786 -5.55112e-17
670 2 179.972 211.361 -5.55112e-17
671 1 124.609 147.675 -5.55112e-17
672 1 119.279 37.2118 -5.55112e-17
673 2 71.1067 104.322 -5.55112e-17
674 2 79.7076 6.41082 -5.55112e-17
675 2 76.4866 44.7873 -5.55112e-17
676 1 76.7879 12.7775 -5.55112e-17
677 2 32.3646 136.39 -5.55112e-17
678 1 57.4166 188.043 -5.55112e-17
679 1 204.37 36.1714 -5.55112e-17
680 2 27.9469 56.5013 -5.55112e-17
681 1 186.048 205.727 -5.55112e-17
682 1 168.485 209.352 -5.55112e-17
683 2 37.1947 163.438 -5.55112e-17
684 1 156.232 128.882 -5.55112e-17
685 1 145.066 12.5251 -5.55112e-17
686 1 178.928 33.0474 -5.55112e-17
687 1 113.16 151.132 -5.55112e-17
688 1 132.893 92.4115 -5.55112e-17
689 2 108.869 49.4123 -5.55112e-17
690 1 158.151 177.121 -5.55112e-17
691 2 49.2267 127.321 -5.55112e-17
692 2 41.599 170.112 -5.55112e-17
693 1 152.379 114.372 -5.55112e-17
694 2 46.2399 72.683 -5.55112e-17
695 2 47.4181 80.2412 -5.55112e-17
696 2 7.9224 123.601 -5.55112e-17
697 1 44.5857 188.253 -5.55112e-17
698 2 194.856 72.6004 -5.55112e-17
699 1 137.145 77.7795 -5.55112e-17
700 2 34.4371 197.791 -5.55112e-17
701 2 210.49 185.923 -5.55112e-17
702 1 108.188 194.346 -5.55112e-17
703 1 190.251 131.58 -5.55112e-17
704 1 65.2899 170.455 -5.55112e-17
705 1 16.8477 90.6309 -5.55112e-17
706 1 56.0442 59.4863 -5.55112e-17
707 1 116.175 114.909 -5.55112e-17
708 2 133.269 115.459 -5.55112e-17
709 1 216.804 158.018 -5.55112e-17
710 2 103.996 91.2841 -5.55112e-17
711 2 216.718 14.0574 -5.55112e-17
712 1 29.2484 52.2503 -5.55112e-17
713 1 144.061 183.75 -5.55112e-17
714 2 95.8457 155.046 -5.55112e-17
715 2 176.449 60.653 -5.55112e-17
716 1 126.527 102.828 -5.55112e-17
717 1 115.479 142.547 -5.55112e-17
718 2 85.5007 83.8332 -5.55112e-17
719 1 108.468 127.158 -5.55112e-17
720 2 119.496 78.4015 -5.55112e-17
721 2 132.034 21.0645 -5.55112e-17
722 2 207.045 142.049 -5.55112e-17
723 2 178.897 162.609 -5.55112e-17
724 2 209.097 174.016 -5.55112e-17
725 2 141.752 161.61 -5.55112e-17
726 2 104.129 99.0222 -5.55112e-17
727 2 53.8661 125.485 -5.55112e-17
728 1 214.895 37.398 -5.55112e-17
729 2 102.049 124.978 -5.55112e-17
730 2 99.4432 137.849 -5.55112e-17
731 1 142.14 200.475 -5.55112e-17
732 2 195.763 162.348 -5.55112e-17
733 2 123.174 77.4563 -5.55112e-17
734 2 8.24596 76.3336 -5.55112e-17
735 2 53.6125 133.36 -5.55112e-17
736 1 102.37 113.449 -5.55112e-17
737 2 137.219 9.31553 -5.55112e-17
738 2 60.6517 210.654 -5.55112e-17
739 2 113.505 114.938 -5.55112e-17
740 2 206.168 183.529 -5.55112e-17
741 2 18.7948 190.894 -5.55112e-17
742 1 159.065 63.7796 -5.55112e-17
743 2 127.628 15.0069 -5.55112e-17
744 1 93.2911 143.12 -5.55112e-17
745 2 45.3936 30.2777 -5.55112e-17
746 1 213.021 53.979 -5.55112e-17
747 1 140.553 125.703 -5.55112e-17
748 2 214.29 215.103 -5.55112e-17
749 1 134.022 165.475 -5.55112e-17
750 1 145.865 95.6816 -5.55112e-17
751 1 124.032 48.3086 -5.55112e-17
752 2 162.734 13.2877 -5.55112e-17
753 1 160.995 59.5191 -5.55112e-17
754 2 188.272 138.65 -5.55112e-17
755 1 151.993 218.662 -5.55112e-17
756 2 99.7233 11.9147 -5.55112e-17
757 1 16.1966 113.011 -5.55112e-17
758 2 117.924 34.7634 -5.55112e-17
759 1 133.861 177.377 -5.55112e-17
760 1 1.44097 84.5187 -5.55112e-17
761 2 175.131 111.52 -5.55112e-17
762 1 52.0149 151.172 -5.55112e-17
763 2 54.52 16.2382 -5.55112e-17
764 2 188.231 54.005 -5.55112e-17
765 1 16.8012 115.56 -5.55112e-17
766 2 180.117 92.5982 -5.55112e-17
767 2 146.866 67.784 -5.55112e-17
768 2 198.448 41.9007 -5.55112e-17
769 2 78.2145 102.007 -5.55112e-17
770 1 169.059 179.956 -5.55112e-17
771 1 131.037 27.8844 -5.55112e-17
772 1 143.563 19.7969 -5.55112e-17
773 2 34.2616 163.384 -5.55112e-17
774 1 132.361 150.188 -5.55112e-17
775 1 74.2743 125.268 -5.55112e-17
776 2 160.255 108.767 -5.55112e-17
777 2 188.718 4.49347 -5.55112e-17
778 1 56.3182 24.413 -5.55112e-17
779 1 41.6572 162.048 -5.55112e-17
780 2 32.8374 83.5933 -5.55112e-17
781 1 108.778 169.169 -5.55112e-17
782 2 206.051 112.078 -5.55112e-17
783 1 157.519 50.6693 -5.55112e-17
784 2 49.5323 61.5281 -5.55112e-17
785 1 176.376 133.753 -5.55112e-17
786 1 155.728 208.932 -5.55112e-17
787 2 11.1219 75.2434 -5.55112e-17
788 2 17.6126 41.8622 -5.55112e-17
789 2 114.54 207.414 -5.55112e-17
790 2 141.454 144.519 -5.55112e-17
791 2 51.1905 40.9828 -5.55112e-17
792 1 68.8421 105.839 -5.55112e-17
793 1 170.502 91.8291 -5.55112e-17
794 2 215.285 153.764 -5.55112e-17
795 2 216.229 114.678 -5.55112e-17
796 1 58.9866 65.6197 -5.55112e-17
797 1 92.5429 123.044 -5.55112e-17
798 1 206.044 96.3138 -5.55112e-17
799 2 125.314 79.9332 -5.55112e-17
800 1 44.7789 181.597 -5.55112e-17
801 2 185.966 145.744 -5.55112e-17
802 1 113.219 47.1951 -5.55112e-17
803 1 209.224 15.891 -5.55112e-17
804 1 171.624 150.13 -5.55112e-17
805 2 72.5204 6.41963 -5.55112e-17
806 2 14.8127 121.962 -5.55112e-17
807 2 40.1431 65.8391 -5.55112e-17
808 2 55.2995 71.6433 -5.55112e-17
809 1 38.3467 67.2614 -5.55112e-17
810 2 66.8991 196.877 -5.55112e-17
811 2 150.234 178.402 -5.55112e-17
812 1 119.83 99.9679 -5.55112e-17
813 1 178.534 134.32 -5.55112e-17
814 1 156.296 203.882 -5.55112e-17
815 1 43.932 163.048 -5.55112e-17
816 1 16.8201 103.501 -5.55112e-17
817 2 85.3047 16.8403 -5.55112e-17
818 2 118.281 113.382 -5.55112e-17
819 2 156.95 93.855 -5.55112e-17
820 1 185.825 49.0034 -5.55112e-17
821 1 33.5522 4.52373 -5.55112e-17
822 2 160.059 145.945 -5.55112e-17
823 1 13.5115 44.4281 -5.55112e-17
824 1 119.038 184.409 -5.55112e-17
825 1 115.718 159.636 -5.55112e-17
826 2 197.134 154.826 -5.55112e-17
827 2 46.5229 164.015 -5.55112e-17
828 1 118.447 22.9104 -5.55112e-17
829 2 138.943 20.7197 -5.55112e-17
830 1 86.8994 157.395 -5.55112e-17
831 2 168.733 89.3551 -5.55112e-17
832 2 66.7149 48.5341 -5.55112e-17
833 2 66.2829 134.868 -5.55112e-17
834 1 196.354 25.0277 -5.55112e-17
835 1 61.4754 75.2527 -5.55112e-17
836 1 41.5318 54.0284 -5.55112e-17
837 2 53.5053 8.07675 -5.55112e-17
838 2 38.9208 49.885 -5.55112e-17
839 1 68.8666 93.8885 -5.55112e-17
840 2 197.791 38.965 -5.55112e-17
841 2 115.42 81.6043 -5.55112e-17
842 1 140.158 25.8222 -5.55112e-17
843 1 71.3535 176.053 -5.55112e-17
844 2 216.661 101.106 -5.55112e-17
845 1 145.864 85.6873 -5.55112e-17
846 2 80.5926 185.535 -5.55112e-17
847 1 25.8662 118.658 -5.55112e-17
848 2 200.296 16.5008 -5.55112e-17
849 1 152.611 106.008 -5.55112e-17
850 2 145.369 179.207 -5.55112e-17
851 2 206.749 170.029 -5.55112e-17
852 1 48.9506 53.8792 -5.55112e-17
853 1 95.1289 216.988 -5.55112e-17
854 2 191.84 37.3358 -5.55112e-17
855 2 55.1683 180.886 -5.55112e-17
856 1 209.845 159.141 -5.55112e-17