ITEM: TIMESTEP
0
ITEM: NUMBER OF ATOMS
7200
ITEM: BOX BOUNDS xy xz yz pp pp pp
0.0000000000000000e+00 2.1900000000000000e+02 0.0000000000000000e+00
0.0000000000000000e+00 2.1900000000000000e+02 0.0000000000000000e+00
-3.6499999999999999e-01 3.6499999999999999e-01 0.0000000000000000e+00
ITEM: ATOMS id type x y z
1 1 183.032 12.4611 -5.55112e-17
2 2 188.434 183.597 -5.55112e-17
3 2 144.907 189.218 -5.55112e-17
4 1 122.958 110.19 -5.55112e-17
5 1 101.249 122.657 -5.55112e-17
6 1 104.465 25.5438 -5.55112e-17
7 2 158.777 128.731 -5.55112e-17
8 2 70.1446 25.8101 -5.55112e-17
9 1 22.1322 214.56 -5.55112e-17
10 2 52.2536 166.816 -5.55112e-17
11 2 210.441 100.281 -5.55112e-17
12 1 33.9427 197.811 -5.55112e-17
13 2 194.091 53.7101 -5.55112e-17
14 1 57.8091 184.752 -5.55112e-17
15 2 193.397 218.926 -5.55112e-17
16 2 218.349 85.3094 -5.55112e-17
17 1 67.4774 74.9056 -5.55112e-17
18 2 10.3629 172.437 -5.55112e-17
19 1 92.5892 130.397 -5.55112e-17
20 1 72.3807 11.5387 -5.55112e-17
21 1 156.923 7.31101 -5.55112e-17
22 2 31.8843 212.633 -5.55112e-17
23 2 43.6085 208.614 -5.55112e-17
24 2 218.756 102.578 -5.55112e-17
25 2 30.3783 207.791 -5.55112e-17
26 2 149.486 27.8047 -5.55112e-17
27 1 217.468 162.41 -5.55112e-17
28 2 53.9269 154.637 -5.55112e-17
29 2 83.4829 4.15185 -5.55112e-17
30 2 132.456 37.4505 -5.55112e-17
31 2 156.774 83.7161 -5.55112e-17
32 1 48.2051 108.799 -5.55112e-17
33 2 145.055 87.1422 -5.55112e-17
34 2 16.4031 95.9801 -5.55112e-17
35 2 126.934 11.0878 -5.55112e-17
36 1 160.096 146.464 -5.55112e-17
37 1 133.627 184.76 -5.55112e-17
38 2 209.067 157.647 -5.55112e-17
39 1 8.19934 38.357 -5.55112e-17
40 2 196.192 73.7681 -5.55112e-17
41 1 192.5 73.47 -5.55112e-17
42 1 55.2976 58.993 -5.55112e-17
43 1 210.214 131.93 -5.55112e-17
44 1 155.688 188.424 -5.55112e-17
45 2 159.48 61.1885 -5.55112e-17
46 1 124.498 192.691 -5.55112e-17
47 2 89.376 80.1777 -5.55112e-17
48 2 150.692 129.797 -5.55112e-17
49 1 194.568 199.997 -5.55112e-17
50 2 29.3001 47.446 -5.55112e-17
51 1 186.409 2.88136 -5.55112e-17
52 1 115.678 48.2782 -5.55112e-17
53 2 55.4142 201.356 -5.55112e-17
54 1 38.9846 16.9415 -5.55112e-17
55 2 53.2806 141.295 -5.55112e-17
56 1 30.9041 132.328 -5.55112e-17
57 2 57.944 133.826 -5.55112e-17
58 1 186.377 37.8575 -5.55112e-17
59 1 157.629 86.1505 -5.55112e-17
60 2 205.736 59.2349 -5.55112e-17
61 1 157.33 164.192 -5.55112e-17
62 1 106.744 111.663 -5.55112e-17
63 2 109.071 39.0975 -5.55112e-17
64 1 28.4256 18.0071 -5.55112e-17
65 2 152.486 148.942 -5.55112e-17
66 2 13.2672 154.712 -5.55112e-17
67 2 182.803 107.876 -5.55112e-17
68 1 136.558 83.2147 -5.55112e-17
69 2 109.878 168.728 -5.55112e-17
70 1 141.511 97.8019 -5.55112e-17
71 1 198.125 147.46 -5.55112e-17
72 2 44.692 157.572 -5.55112e-17
73 2 192.26 179.592 -5.55112e-17
74 2 109.745 69.8388 -5.55112e-17
75 1 14.6784 136.728 -5.55112e-17
76 2 137.958 206.593 -5.55112e-17
77 2 168.509 15.9786 -5.55112e-17
78 1 93.3965 207.758 -5.55112e-17
79 2 60.559 76.249 -5.55112e-17
80 1 50.1988 23.2129 -5.55112e-17
81 1 181.766 210.932 -5.55112e-17
82 1 173.737 41.2697 -5.55112e-17
83 1 70.9423 91.4145 -5.55112e-17
84 2 140.998 179.268 -5.55112e-17
85 2 150.812 145.856 -5.55112e-17
86 2 51.3026 68.0888 -5.55112e-17
87 2 38.5684 75.5389 -5.55112e-17
88 1 80.3092 157.601 -5.55112e-17
89 2 199.625 105.242 -5.55112e-17
90 2 126.637 35.9074 -5.55112e-17
91 2 11.3664 182.587 -5.55112e-17
92 1 27.6053 215.35 -5.55112e-17
93 2 110.299 154.778 -5.55112e-17
94 2 112.679 144.476 -5.55112e-17
95 1 211.15 51.502 -5.55112e-17
96 2 32.1297 54.1957 -5.55112e-17
97 2 4.56906 211.751 -5.55112e-17
98 2 35.892 185.131 -5.55112e-17
99 1 105.23 9.65522 -5.55112e-17
100 2 158.891 65.6811 -5.55112e-17
101 1 184.181 110.129 -5.55112e-17
102 1 66.1756 163.998 -5.55112e-17
103 2 205.102 100.202 -5.55112e-17
104 2 104.195 73.2985 -5.55112e-17
105 1 160.82 58.7498 -5.55112e-17
106 1 185.129 60.7049 -5.55112e-17
107 1 12.317 106.87 -5.55112e-17
108 1 70.3614 210.512 -5.55112e-17
109 2 217.57 39.1662 -5.55112e-17
110 2 144.968 29.2277 -5.55112e-17
111 1 52.9963 92.2652 -5.55112e-17
112 2 8.75022 50.7276 -5.55112e-17
113 1 134.746 10.5022 -5.55112e-17
114 1 92.2045 86.9146 -5.55112e-17
115 2 32.1531 60.1086 -5.55112e-17
116 2 184.181 15.2087 -5.55112e-17
117 1 163.2 110.545 -5.55112e-17
118 1 82.6417 94.3894 -5.55112e-17
119 2 98.9761 139.752 -5.55112e-17
120 2 200.751 58.5163 -5.55112e-17
121 1 205.297 138.616 -5.55112e-17
122 2 142.754 129.802 -5.55112e-17
123 2 6.85954 129.354 -5.55112e-17
124 1 161.795 200.13 -5.55112e-17
125 1 88.1828 192.438 -5.55112e-17
126 2 97.5946 84.2831 -5.55112e-17
127 2 208.662 110.655 -5.55112e-17
128 1 121.758 105.251 -5.55112e-17
129 1 144.408 194.48 -5.55112e-17
130 2 120.256 61.5746 -5.55112e-17
131 1 133.732 60.0447 -5.55112e-17
132 1 139.691 21.7723 -5.55112e-17
133 1 181.158 105.602 -5.55112e-17
134 1 81.0701 191.635 -5.55112e-17
135 2 177.686 60.9866 -5.55112e-17
136 1 190.289 118.805 -5.55112e-17
137 1 60.5766 7.47923 -5.55112e-17
138 2 156.151 158.771 -5.55112e-17
139 1 132.677 11.4594 -5.55112e-17
140 1 144.794 208.375 -5.55112e-17
141 1 51.1923 70.6838 -5.55112e-17
142 1 213.517 191.202 -5.55112e-17
143 1 26.1894 25.3969 -5.55112e-17
144 1 46.5125 98.0259 -5.55112e-17
145 2 192.849 80.2485 -5.55112e-17
146 1 153.156 125.84 -5.55112e-17
147 2 16.1373 134.597 -5.55112e-17
148 1 24.1799 133.282 -5.55112e-17
149 1 147.738 190.177 -5.55112e-17
150 2 65.5576 52.7451 -5.55112e-17
151 1 132.035 137.768 -5.55112e-17
152 1 164.066 163.442 -5.55112e-17
153 2 123.81 130.265 -5.55112e-17
154 1 183.914 52.9126 -5.55112e-17
155 2 203.325 40.0524 -5.55112e-17
156 2 109.517 197.026 -5.55112e-17
157 2 166.391 28.7135 -5.55112e-17
158 2 27.7066 8.01101 -5.55112e-17
159 2 12.1412 158.779 -5.55112e-17
160 2 120.765 54.7865 -5.55112e-17
161 2 129.313 138.825 -5.55112e-17
162 1 23.7483 66.672 -5.55112e-17
163 1 189.08 33.6082 -5.55112e-17
164 2 108.199 134.888 -5.55112e-17
165 1 49.1531 72.0651 -5.55112e-17
166 2 6.22349 200.066 -5.55112e-17
167 1 107.15 168.051 -5.55112e-17
168 1 211.448 103.044 -5.55112e-17
169 2 98.1709 199.309 -5.55112e-17
170 1 66.6017 206.81 -5.55112e-17
171 1 137.307 92.2843 -5.55112e-17
172 1 199.472 199.413 -5.55112e-17
173 1 39.1141 204.346 -5.55112e-17
174 2 38.5987 173.394 -5.55112e-17
175 2 50.2771 200.107 -5.55112e-17
176 1 119.792 151.627 -5.55112e-17
177 2 105.184 15.5093 -5.55112e-17
178 1 25.1985 7.62074 -5.55112e-17
179 2 106.608 197.093 -5.55112e-17
180 1 44.5815 76.1023 -5.55112e-17
181 1 15.7164 119.201 -5.55112e-17
182 1 113.304 87.1451 -5.55112e-17
183 1 63.9189 168.583 -5.55112e-17
184 2 157.5 25.3683 -5.55112e-17
185 2 189.938 78.8244 -5.55112e-17
186 2 74.5741 206.563 -5.55112e-17
187 2 159.203 201.694 -5.55112e-17
188 2 60.5405 28.9667 -5.55112e-17
189 1 191.347 57.9763 -5.55112e-17
190 1 196.264 55.5915 -5.55112e-17
191 2 35.385 104.566 -5.55112e-17
192 2 90.9248 61.2909 -5.55112e-17
193 1 108.544 166.184 -5.55112e-17
194 1 26.6194 5.5433 -5.55112e-17
195 2 58.1655 119.791 -5.55112e-17
196 1 218.994 218.852 -5.55112e-17
197 2 119.162 51.6792 -5.55112e-17
198 2 206.197 27.4867 -5.55112e-17
199 2 99.5404 170.777 -5.55112e-17
200 2 98.8193 31.4327 -5.55112e-17
201 2 103.563 121.288 -5.55112e-17
202 1 43.7737 34.3414 -5.55112e-17
203 1 18.6017 42.9563 -5.55112e-17
204 2 45.0619 80.9217 -5.55112e-17
205 2 183.374 182.552 -5.55112e-17
206 2 170.637 127.038 -5.55112e-17
207 1 74.6693 189.487 -5.55112e-17
208 2 135.052 54.3179 -5.55112e-17
209 2 32.8855 142.539 -5.55112e-17
210 1 182.217 113.027 -5.55112e-17
211 1 208.151 35.3186 -5.55112e-17
212 1 208.524 85.3868 -5.55112e-17
213 1 127.848 123.36 -5.55112e-17
214 2 12.1597 11.5555 -5.55112e-17
215 1 5.45029 142.743 -5.55112e-17
216 1 54.9797 46.8474 -5.55112e-17
217 1 164.594 61.7359 -5.55112e-17
218 2 200.735 120.991 -5.55112e-17
219 2 136.599 189.351 -5.55112e-17
220 1 121.297 1.13683 -5.55112e-17
221 2 82.9707 7.24822 -5.55112e-17
222 1 158.715 157.079 -5.55112e-17
223 1 45.9822 120.315 -5.55112e-17
224 2 145.853 70.5692 -5.55112e-17
225 2 168.937 163.83 -5.55112e-17
226 1 196.882 10.1165 -5.55112e-17
227 2 203.344 214.59 -5.55112e-17
228 2 118.407 64.1652 -5.55112e-17
229 1 47.5481 22.8419 -5.55112e-17
230 1 4.92584 56.6186 -5.55112e-17
231 2 137.566 160.776 -5.55112e-17
232 1 18.1179 212.785 -5.55112e-17
233 2 75.8843 196.072 -5.55112e-17
234 1 0.528691 59.7579 -5.55112e-17
235 1 150.126 106.299 -5.55112e-17
236 2 153.368 52.9528 -5.55112e-17
237 2 99.2703 203.96 -5.55112e-17
238 2 94.7756 140.534 -5.55112e-17
239 1 35.4101 217.14 -5.55112e-17
240 1 129.51 90.8647 -5.55112e-17
241 2 3.32138 124.53 -5.55112e-17
242 1 194.166 28.3754 -5.55112e-17
243 2 214.976 130.01 -5.55112e-17
244 2 35.8933 190.605 -5.55112e-17
245 1 174.205 21.2841 -5.55112e-17
246 2 90.2501 85.2066 -5.55112e-17
247 2 198.833 150.235 -5.55112e-17
248 1 37.9006 27.0816 -5.55112e-17
249 1 131.947 107.933 -5.55112e-17
250 1 134.678 27.6046 -5.55112e-17
251 2 101.902 43.3165 -5.55112e-17
252 1 111.001 157.372 -5.55112e-17
253 2 95.4924 97.5527 -5.55112e-17
254 2 179.208 205.039 -5.55112e-17
255 2 122.908 49.1748 -5.55112e-17
256 1 3.42037 180.148 -5.55112e-17
257 2 32.7276 195.281 -5.55112e-17
258 1 210.841 81.1707 -5.55112e-17
259 2 161.023 141.334 -5.55112e-17
260 1 40.7917 192.819 -5.55112e-17
261 2 142.963 176.852 -5.55112e-17
262 2 186.62 110.485 -5.55112e-17
263 2 94.1719 172.814 -5.55112e-17
264 1 199.099 36.3421 -5.55112e-17
265 1 157.683 186.801 -5.55112e-17
266 1 99.0068 196.479 -5.55112e-17
267 2 115.554 16.6892 -5.55112e-17
268 1 218.795 48.7927 -5.55112e-17
269 2 9.79072 113.26 -5.55112e-17
270 2 185.455 148.944 -5.55112e-17
271 2 187.821 95.1603 -5.55112e-17
272 1 59.3562 26.4839 -5.55112e-17
273 1 70.6091 83.5845 -5.55112e-17
274 1 38.3293 196.565 -5.55112e-17
275 1 146.888 110.348 -5.55112e-17
276 1 198.753 75.0356 -5.55112e-17
277 1 100.697 37.8751 -5.55112e-17
278 2 60.7669 145.052 -5.55112e-17
279 2 160.125 86.6004 -5.55112e-17
280 1 116.927 210.761 -5.55112e-17
281 2 169.908 182.198 -5.55112e-17
282 2 75.2241 127.481 -5.55112e-17
283 2 218.721 151.107 -5.55112e-17
284 1 125.96 113.338 -5.55112e-17
285 1 73.3954 165.772 -5.55112e-17
286 2 30.338 180.422 -5.55112e-17
287 2 93.3235 110.149 -5.55112e-17
288 1 104.345 123.871 -5.55112e-17
289 2 193.786 56.8838 -5.55112e-17
290 1 101.138 29.958 -5.55112e-17
291 2 96.4713 185.803 -5.55112e-17
292 1 76.9317 125.696 -5.55112e-17
293 1 158.716 168.064 -5.55112e-17
294 1 29.9362 177.936 -5.55112e-17
295 2 46.7275 145.954 -5.55112e-17
296 1 196.993 176.786 -5.55112e-17
297 1 2.03157 18.5989 -5.55112e-17
298 2 30.4902 140.711 -5.55112e-17
299 1 177.443 55.5782 -5.55112e-17
300 2 190.269 193.091 -5.55112e-17
301 2 172.343 19.4285 -5.55112e-17
302 2 163.822 89.4072 -5.55112e-17
303 1 2.15785 151.78 -5.55112e-17
304 1 124.312 105.979 -5.55112e-17
305 1 92.426 177.39 -5.55112e-17
306 2 83.8791 17.598 -5.55112e-17
307 2 150.376 167.692 -5.55112e-17
308 2 142.302 22.1536 -5.55112e-17
309 1 70.6533 72.6984 -5.55112e-17
310 1 190.611 190.331 -5.55112e-17
311 1 150.965 108.683 -5.55112e-17
312 2 134.572 13.2619 -5.55112e-17
313 2 155.056 17.9231 -5.55112e-17
314 1 184.28 58.571 -5.55112e-17
315 2 56.6041 107.774 -5.55112e-17
316 1 95.9066 31.0697 -5.55112e-17
317 1 133.02 175.579 -5.55112e-17
318 1 216.543 135.529 -5.55112e-17
319 2 74.5024 201.281 -5.55112e-17
320 1 213.96 47.7415 -5.55112e-17
321 1 52.5778 87.1463 -5.55112e-17
322 1 51.3427 148.348 -5.55112e-17
323 2 19.9262 138.525 -5.55112e-17
324 2 7.89446 95.1528 -5.55112e-17
325 2 216.247 13.7257 -5.55112e-17
326 1 185.052 0.729108 -5.55112e-17
327 1 35.795 46.2076 -5.55112e-17
328 2 32.9317 192.24 -5.55112e-17
329 2 28.3759 83.0658 -5.55112e-17
330 2 153.389 39.0068 -5.55112e-17
331 2 187.848 67.852 -5.55112e-17
332 2 121.417 114.517 -5.55112e-17
333 2 27.909 151.338 -5.55112e-17
334 2 215.793 18.3347 -5.55112e-17
335 1 167.143 211.138 -5.55112e-17
336 2 27.6944 141.835 -5.55112e-17
337 2 40.6954 9.62817 -5.55112e-17
338 1 203.44 90.5146 -5.55112e-17
339 2 15.0852 152.131 -5.55112e-17
340 2 176.993 214.192 -5.55112e-17
341 2 101.309 60.4246 -5.55112e-17
342 2 172.985 166.49 -5.55112e-17
343 2 176.203 4.97116 -5.55112e-17
344 1 87.9352 105.952 -5.55112e-17
345 2 26.5568 212.92 -5.55112e-17
346 2 75.2681 73.3114 -5.55112e-17
347 1 147.645 98.5649 -5.55112e-17
348 1 181.375 3.46881 -5.55112e-17
349 2 173.204 69.7946 -5.55112e-17
350 2 77.8543 179.2 -5.55112e-17
351 1 174.982 141.631 -5.55112e-17
352 1 212.806 163.491 -5.55112e-17
353 2 140.542 131.527 -5.55112e-17
354 2 191.717 176.313 -5.55112e-17
355 1 215.883 157.331 -5.55112e-17
356 2 115.172 1.52383 -5.55112e-17
357 1 127.07 192.481 -5.55112e-17
358 1 78.369 25.5534 -5.55112e-17
359 1 34.6474 144.218 -5.55112e-17
360 1 51.3123 8.60186 -5.55112e-17
361 2 196.46 68.6986 -5.55112e-17
362 2 172.05 94.5479 -5.55112e-17
363 1 79.2349 215.656 -5.55112e-17
364 2 217.003 46.6668 -5.55112e-17
365 1 5.86902 164.337 -5.55112e-17
366 1 82.4682 173.319 -5.55112e-17
367 1 161.012 103.967 -5.55112e-17
368 1 20.9153 164.547 -5.55112e-17
369 2 81.6259 143.791 -5.55112e-17
370 1 6.56792 132.132 -5.55112e-17
371 2 71.4811 111.551 -5.55112e-17
372 1 87.9344 6.8328 -5.55112e-17
373 2 117.713 208.45 -5.55112e-17
374 2 176.874 101.482 -5.55112e-17
375 1 136.359 25.7258 -5.55112e-17
376 1 121.664 147.111 -5.55112e-17
377 2 95.5355 76.227 -5.55112e-17
378 2 215.539 106.779 -5.55112e-17
379 2 169.746 187.224 -5.55112e-17
380 1 199.6 33.9404 -5.55112e-17
381 1 174.947 67.84 -5.55112e-17
382 1 122.63 27.0949 -5.55112e-17
383 1 109.949 83.5265 -5.55112e-17
384 2 54.1204 100.75 -5.55112e-17
385 1 65.979 148.87 -5.55112e-17
386 2 179.621 175.559 -5.55112e-17
387 1 34.5216 107.277 -5.55112e-17
388 1 144.118 163.833 -5.55112e-17
389 2 215.958 121.323 -5.55112e-17
390 1 105.04 66.6106 -5.55112e-17
391 1 203.321 217.351 -5.55112e-17
392 2 4.2917 100.253 -5.55112e-17
393 2 192.351 173.275 -5.55112e-17
394 1 36.784 203.82 -5.55112e-17
395 1 19.4589 214.955 -5.55112e-17
396 2 75.3046 88.5539 -5.55112e-17
397 1 67.7737 41.9498 -5.55112e-17
398 2 165.657 110.68 -5.55112e-17
399 2 196.798 106.473 -5.55112e-17
400 2 123.867 69.2412 -5.55112e-17
401 2 84.0454 190.944 -5.55112e-17
402 1 84.121 43.1072 -5.55112e-17
403 1 69.6159 116.582 -5.55112e-17
404 2 113.176 13.915 -5.55112e-17
405 1 49.7736 197.017 -5.55112e-17
406 2 217.223 95.6007 -5.55112e-17
407 1 124.069 79.1436 -5.55112e-17
408 1 130.206 28.9707 -5.55112e-17
409 2 213.961 115.954 -5.55112e-17
410 2 70.7623 158.894 -5.55112e-17
411 1 136.327 96.9223 -5.55112e-17
412 1 164.596 6.98279 -5.55112e-17
413 1 34.6852 85.8891 -5.55112e-17
414 2 193.529 202.51 -5.55112e-17
415 1 107.51 126.685 -5.55112e-17
416 1 175.887 51.9273 -5.55112e-17
417 2 107.458 129.424 -5.55112e-17
418 2 34.8313 179.784 -5.55112e-17
419 2 195.312 91.8279 -5.55112e-17
420 2 108.791 44.794 -5.55112e-17
421 1 70.2886 31.077 -5.55112e-17
422 1 34.463 58.3967 -5.55112e-17
423 2 116.648 125.498 -5.55112e-17
424 2 39.1949 24.8527 -5.55112e-17
425 2 117.155 150.351 -5.55112e-17
426 1 185.876 97.0778 -5.55112e-17
427 2 74.8586 60.997 -5.55112e-17
428 1 29.6834 175.274 -5.55112e-17
429 2 131.207 150.085 -5.55112e-17
430 2 111.375 104.395 -5.55112e-17
431 1 13.2149 9.14119 -5.55112e-17
432 2 173.866 3.16803 -5.55112e-17
433 1 186.371 198.846 -5.55112e-17
434 1 20.5135 205.24 -5.55112e-17
435 1 149.8 85.1629 -5.55112e-17
436 2 85.256 198.659 -5.55112e-17
437 2 180.815 82.6792 -5.55112e-17
438 2 194.401 177.456 -5.55112e-17
439 2 92.812 10.4075 -5.55112e-17
440 2 201.389 92.0698 -5.55112e-17
441 1 131.086 167.251 -5.55112e-17
442 1 38.0235 104.504 -5.55112e-17
443 2 79.1161 82.1659 -5.55112e-17
444 1 204.555 104.852 -5.55112e-17
445 1 169.143 132.845 -5.55112e-17
446 2 183.137 150.914 -5.55112e-17
447 2 39.8131 40.1055 -5.55112e-17
448 2 206.049 176.146 -5.55112e-17
449 1 41.3099 177.53 -5.55112e-17
450 1 10.503 126.211 -5.55112e-17
451 1 54.2455 209.144 -5.55112e-17
452 2 208.383 60.658 -5.55112e-17
453 1 216.23 150.265 -5.55112e-17
454 1 3.14717 68.5638 -5.55112e-17
455 2 81.2674 131.074 -5.55112e-17
456 1 85.4 2.23285 -5.55112e-17
457 2 140.572 144.784 -5.55112e-17
458 2 156.213 135.542 -5.55112e-17
459 2 133.737 51.4725 -5.55112e-17
460 1 197.139 170.015 -5.55112e-17
461 1 112.222 128.831 -5.55112e-17
462 1 104.164 196.19 -5.55112e-17
463 2 110.509 218.602 -5.55112e-17
464 2 13.514 78.0021 -5.55112e-17
465 1 123.861 16.1287 -5.55112e-17
466 2 150.531 126.612 -5.55112e-17
467 2 65.4452 133.095 -5.55112e-17
468 2 123.916 125.385 -5.55112e-17
469 2 58.1091 71.7223 -5.55112e-17
470 2 208.639 154.177 -5.55112e-17
471 2 211.975 211.51 -5.55112e-17
472 2 111.36 37.0071 -5.55112e-17
473 2 197.817 214.634 -5.55112e-17
474 2 85.1244 147.044 -5.55112e-17
475 1 164.284 182.81 -5.55112e-17
476 2 175.41 34.5818 -5.55112e-17
477 1 208.759 217.745 -5.55112e-17
478 1 46.7003 188.26 -5.55112e-17
479 2 0.916887 197.789 -5.55112e-17
480 1 82.5707 61.782 -5.55112e-17
481 1 3.07172 209.506 -5.55112e-17
482 2 152.439 176.6 -5.55112e-17
483 1 134.383 209.003 -5.55112e-17
484 1 65.8677 135.694 -5.55112e-17
485 2 13.6144 173.945 -5.55112e-17
486 1 133.009 72.8873 -5.55112e-17
487 1 13.7876 202.021 -5.55112e-17
488 1 49.9574 83.3791 -5.55112e-17
489 1 70.347 108.858 -5.55112e-17
490 1 164.649 73.2365 -5.55112e-17
491 1 163.055 75.3314 -5.55112e-17
492 2 209.285 15.5221 -5.55112e-17
493 1 93.9691 203.165 -5.55112e-17
494 2 77.9486 66.5116 -5.55112e-17
495 1 150.025 92.0414 -5.55112e-17
496 1 51.9106 123.376 -5.55112e-17
497 1 136.706 110.019 -5.55112e-17
498 2 145.596 38.8569 -5.55112e-17
499 2 177.426 118.765 -5.55112e-17
500 2 57.5968 32.7725 -5.55112e-17
501 2 14.4957 139.364 -5.55112e-17
502 2 190.319 126.748 -5.55112e-17
503 2 57.7961 63.5939 -5.55112e-17
504 2 98.1778 50.5538 -5.55112e-17
505 2 111.913 213.834 -5.55112e-17
506 1 207.293 5.91768 -5.55112e-17
507 2 49.9022 181.872 -5.55112e-17
508 1 140.661 59.0409 -5.55112e-17
509 1 209.375 47.3421 -5.55112e-17
510 1 195.35 104.114 -5.55112e-17
511 2 108.626 179.551 -5.55112e-17
512 1 11.2022 42.6524 -5.55112e-17
513 2 88.0574 183.09 -5.55112e-17
514 2 15.2914 87.2814 -5.55112e-17
515 1 60.4097 98.6045 -5.55112e-17
516 2 101.201 74.3203 -5.55112e-17
517 1 32.0239 147.701 -5.55112e-17
518 2 10.1875 13.977 -5.55112e-17
519 1 124.802 92.1344 -5.55112e-17
520 2 209.682 93.9781 -5.55112e-17
521 2 130.544 39.8155 -5.55112e-17
522 1 187.087 7.26261 -5.55112e-17
523 1 127.412 99.4484 -5.55112e-17
524 2 175.453 18.6959 -5.55112e-17
525 2 185.591 46.2163 -5.55112e-17
526 2 108.237 16.4168 -5.55112e-17
527 1 170.866 25.0934 -5.55112e-17
528 1 213.423 202.092 -5.55112e-17
529 2 105.062 175.811 -5.55112e-17
530 2 18.5391 88.0265 -5.55112e-17
531 2 184.381 172.015 -5.55112e-17
532 1 80.9982 5.48841 -5.55112e-17
533 2 23.2511 158.132 -5.55112e-17
534 1 23.0228 168.496 -5.55112e-17
535 1 169.91 206.645 -5.55112e-17
536 2 18.3237 169.753 -5.55112e-17
537 1 142.332 29.1249 -5.55112e-17
538 1 68.2088 157.823 -5.55112e-17
539 2 80.7013 163.28 -5.55112e-17
540 1 35.3698 182.354 -5.55112e-17
541 1 104.782 129.082 -5.55112e-17
542 1 58.2176 126.479 -5.55112e-17
543 2 120.585 168.425 -5.55112e-17
544 1 217.774 211.75 -5.55112e-17
545 1 174.199 72.1188 -5.55112e-17
546 2 187.117 9.98309 -5.55112e-17
547 1 12.5084 71.9733 -5.55112e-17
548 1 29.2889 5.8633 -5.55112e-17
549 2 34.9181 152.773 -5.55112e-17
550 2 164.692 193.396 -5.55112e-17
551 2 38.4907 7.32052 -5.55112e-17
552 1 32.0465 51.7453 -5.55112e-17
553 2 207.523 196.72 -5.55112e-17
554 2 144.196 33.9287 -5.55112e-17
555 2 177.675 134.53 -5.55112e-17
556 1 177.676 211.616 -5.55112e-17
557 1 211.012 54.1173 -5.55112e-17
558 1 60.2063 142.497 -5.55112e-17
559 2 105.736 91.7298 -5.55112e-17
560 2 57.2178 89.2722 -5.55112e-17
561 2 110.93 181.305 -5.55112e-17
562 2 98.0933 65.0357 -5.55112e-17
563 1 73.0446 168.338 -5.55112e-17
564 2 103.464 78.6036 -5.55112e-17
565 2 33.7745 65.3219 -5.55112e-17
566 2 64.3565 60.7923 -5.55112e-17
567 1 94.9589 11.8061 -5.55112e-17
568 1 22.4611 77.7725 -5.55112e-17
569 2 141.79 194.341 -5.55112e-17
570 2 11.6021 21.1168 -5.55112e-17
571 2 5.2625 61.915 -5.55112e-17
572 1 115.175 107.585 -5.55112e-17
573 2 37.7546 89.4101 -5.55112e-17
574 2 178.857 170.64 -5.55112e-17
575 1 196.246 206.928 -5.55112e-17
576 1 25.4531 68.5355 -5.55112e-17
577 1 128.126 75.0658 -5.55112e-17
578 1 183.636 114.925 -5.55112e-17
579 2 182.349 46.5543 -5.55112e-17
580 1 108.68 103.869 -5.55112e-17
581 1 91.5813 146.941 -5.55112e-17
582 2 125.488 101.201 -5.55112e-17
583 2 103.257 84.223 -5.55112e-17
584 2 107.361 151.329 -5.55112e-17
585 1 182.012 103.482 -5.55112e-17
586 1 144.268 79.5945 -5.55112e-17
587 1 158.107 111.611 -5.55112e-17
588 2 64.1348 108.698 -5.55112e-17
589 1 210.584 59.3474 -5.55112e-17
590 2 181.62 58.2632 -5.55112e-17
591 2 178.943 16.308 -5.55112e-17
592 1 203.928 128.602 -5.55112e-17
593 1 127.001 90.2771 -5.55112e-17
594 1 5.3742 69.7995 -5.55112e-17
595 1 33.2022 62.8377 -5.55112e-17
596 2 106.864 71.6846 -5.55112e-17
597 2 63.6291 105.596 -5.55112e-17
598 2 135.623 87.5361 -5.55112e-17
599 2 96.7257 166.025 -5.55112e-17
600 2 49.3972 98.685 -5.55112e-17
601 1 145.636 107.767 -5.55112e-17
602 1 173.405 51.909 -5.55112e-17
603 2 216.917 159.698 -5.55112e-17
604 1 46.2479 179.254 -5.55112e-17
605 2 140.009 100.529 -5.55112e-17
606 2 150.202 99.0515 -5.55112e-17
607 2 47.5113 169.682 -5.55112e-17
608 2 128.327 30.7893 -5.55112e-17
609 1 77.7581 89.4859 -5.55112e-17
610 2 106.299 199.979 -5.55112e-17
611 1 1.46541 165.757 -5.55112e-17
612 1 206.993 117.754 -5.55112e-17
613 2 213.493 156.554 -5.55112e-17
614 1 202.457 30.6383 -5.55112e-17
615 1 152.118 104.234 -5.55112e-17
616 2 145.997 178.029 -5.55112e-17
617 1 168.812 0.926787 -5.55112e-17
618 1 137.072 216.373 -5.55112e-17
619 1 164.246 160.49 -5.55112e-17
620 2 42.5726 88.9315 -5.55112e-17
621 2 203.508 76.8783 -5.55112e-17
622 2 144.699 154.237 -5.55112e-17
623 2 108.547 147.208 -5.55112e-17
624 1 107.503 177.238 -5.55112e-17
625 2 208.667 79.6751 -5.55112e-17
626 1 211.182 190.276 -5.55112e-17
627 2 195.395 193.301 -5.55112e-17
628 1 116.673 156.034 -5.55112e-17
629 1 30.5064 40.8799 -5.55112e-17
630 2 133.456 213.833 -5.55112e-17
631 2 144.904 115.39 -5.55112e-17
632 2 209.007 19.9008 -5.55112e-17
633 2 60.3442 131.699 -5.55112e-17
634 2 191.288 67.8047 -5.55112e-17
635 2 79.8709 72.3012 -5.55112e-17
636 1 88.1608 131.296 -5.55112e-17
637 1 216.882 152.817 -5.55112e-17
638 1 116.699 69.5987 -5.55112e-17
639 2 200.587 65.7492 -5.55112e-17
640 2 149.417 77.7273 -5.55112e-17
641 1 200.265 96.8904 -5.55112e-17
642 2 162.214 35.4295 -5.55112e-17
643 1 165.108 57.8281 -5.55112e-17
644 2 139.248 154.885 -5.55112e-17
645 2 5.38932 75.1792 -5.55112e-17
646 1 169.624 142.092 -5.55112e-17
647 2 128.96 148.182 -5.55112e-17
648 2 190.654 211.778 -5.55112e-17
649 1 63.4425 145.506 -5.55112e-17
650 1 56.2003 153.244 -5.55112e-17
651 1 112.489 131.199 -5.55112e-17
652 2 8.33959 214.142 -5.55112e-17
653 2 195.501 45.0842 -5.55112e-17
654 1 208.36 164.524 -5.55112e-17
655 1 63.4225 47.6214 -5.55112e-17
656 1 199.182 10.2611 -5.55112e-17
657 1 125 120.398 -5.55112e-17
658 2 165.773 105.381 -5.55112e-17
659 2 101.192 137.628 -5.55112e-17
660 1 24.8288 11.9581 -5.55112e-17
661 2 15.9549 37.0008 -5.55112e-17
662 2 135.865 116.919 -5.55112e-17
663 1 163.567 112.684 -5.55112e-17
664 1 79.7155 138.567 -5.55112e-17
665 1 135.415 143.792 -5.55112e-17
666 1 203.07 185.221 -5.55112e-17
667 1 0.0964086 116.829 -5.55112e-17
668 1 134.083 156.929 -5.55112e-17
669 1 107.31 160.929 -5.55112e-17
670 2 211.906 161.065 -5.55112e-17
671 1 3.55232 16.303 -5.55112e-17
672 1 193.336 141.432 -5.55112e-17
673 2 47.2839 85.0137 -5.55112e-17
674 2 182.414 205.467 -5.55112e-17
675 2 152.758 1.91993 -5.55112e-17
676 1 180.1 160.416 -5.55112e-17
677 2 53.4482 53.3905 -5.55112e-17
678 1 86.7944 113.719 -5.55112e-17
679 1 86.5293 65.0134 -5.55112e-17
680 2 71.6997 14.0589 -5.55112e-17
681 1 5.39394 9.32449 -5.55112e-17
682 1 141.752 171.549 -5.55112e-17
683 2 96.2936 123.565 -5.55112e-17
684 1 23.4413 180.523 -5.55112e-17
685 1 84.2114 206.346 -5.55112e-17
686 1 142.586 159.511 -5.55112e-17
687 1 107.747 53.5807 -5.55112e-17
688 1 151.754 97.0253 -5.55112e-17
689 2 10.2625 139.5 -5.55112e-17
690 1 48.3276 120.539 -5.55112e-17
691 2 64.6158 115.194 -5.55112e-17
692 2 180.382 178.697 -5.55112e-17
693 1 161.3 96.0498 -5.55112e-17
694 2 146.945 149.837 -5.55112e-17
695 2 188.052 35.9459 -5.55112e-17
696 2 31.4166 82.3577 -5.55112e-17
697 1 104.324 35.9293 -5.55112e-17
698 2 41.0469 18.468 -5.55112e-17
699 1 57.4651 203.145 -5.55112e-17
700 2 17.7293 126.11 -5.55112e-17
701 2 30.689 63.8279 -5.55112e-17
702 1 160.768 10.0479 -5.55112e-17
703 1 195.719 60.8872 -5.55112e-17
704 1 160.024 122.132 -5.55112e-17
705 1 43.3595 120.343 -5.55112e-17
706 1 75.3848 161.593 -5.55112e-17
707 1 182.182 66.8325 -5.55112e-17
708 2 195.633 101.463 -5.55112e-17
709 1 54.1265 160.24 -5.55112e-17
710 2 91.7694 16.3701 -5.55112e-17
711 2 1.59888 139.092 -5.55112e-17
712 1 84.4886 214.432 -5.55112e-17
713 1 4.92469 152.351 -5.55112e-17
714 2 145.119 147.023 -5.55112e-17
715 2 132.989 86.9516 -5.55112e-17
716 1 88.6156 60.0857 -5.55112e-17
717 1 14.8802 61.1349 -5.55112e-17
718 2 78.5429 99.8777 -5.55112e-17
719 1 69.0119 202.966 -5.55112e-17
720 2 52.3062 197.754 -5.55112e-17
721 2 44.2486 213.31 -5.55112e-17
722 2 65.0129 138.131 -5.55112e-17
723 2 15.615 165.876 -5.55112e-17
724 2 202.524 106.826 -5.55112e-17
725 2 21.85 50.2457 -5.55112e-17
726 2 177.335 123.795 -5.55112e-17
727 2 35.3246 109.529 -5.55112e-17
728 1 176.262 77.1538 -5.55112e-17
729 2 167.32 130.911 -5.55112e-17
730 2 175.177 94.5192 -5.55112e-17
731 1 10.0295 23.3851 -5.55112e-17
732 2 97.6961 87.3502 -5.55112e-17
733 2 147.867 146.458 -5.55112e-17
734 2 59.5021 192.11 -5.55112e-17
735 2 148.892 71.4111 -5.55112e-17
736 1 182.116 177.029 -5.55112e-17
737 2 48.7 40.0475 -5.55112e-17
738 2 71.6839 208.044 -5.55112e-17
739 2 186.106 131.153 -5.55112e-17
740 2 40.0076 115.743 -5.55112e-17
741 2 200.585 113.437 -5.55112e-17
742 1 71.5124 98.9715 -5.55112e-17
743 2 78.7294 76.4425 -5.55112e-17
744 1 146.966 49.8775 -5.55112e-17
745 2 15.7554 75.8609 -5.55112e-17
746 1 218.625 121.374 -5.55112e-17
747 1 98.2467 163.559 -5.55112e-17
748 2 70.3104 198.205 -5.55112e-17
749 1 213.455 166.053 -5.55112e-17
750 1 139.288 147.609 -5.55112e-17
751 1 142.937 88.6909 -5.55112e-17
752 2 194.983 168.659 -5.55112e-17
753 1 37.3265 180.623 -5.55112e-17
754 2 65.905 81.3041 -5.55112e-17
755 1 6.11668 80.7284 -5.55112e-17
756 2 178.3 58.1388 -5.55112e-17
757 1 110.751 15.2367 -5.55112e-17
758 2 99.3692 28.154 -5.55112e-17
759 1 95.6908 133.56 -5.55112e-17
760 1 171.04 61.6051 -5.55112e-17
761 2 213.205 100.724 -5.55112e-17
762 1 178.273 105.928 -5.55112e-17
763 2 6.43124 157.401 -5.55112e-17
764 2 43.7715 188.342 -5.55112e-17
765 1 21.5098 159.999 -5.55112e-17
766 2 100.004 48.1152 -5.55112e-17
767 2 206.313 148.59 -5.55112e-17
768 2 71.9777 62.5662 -5.55112e-17
769 2 188.263 98.324 -5.55112e-17
770 1 133.882 17.9246 -5.55112e-17
771 1 64.7901 63.6348 -5.55112e-17
772 1 129.006 0.164461 -5.55112e-17
773 2 166.43 172.135 -5.55112e-17
774 1 88.0649 86.785 -5.55112e-17
775 1 103.016 76.0617 -5.55112e-17
776 2 192.699 103.214 -5.55112e-17
777 2 42.1239 79.6223 -5.55112e-17
778 1 83.2347 12.9263 -5.55112e-17
779 1 48.1381 61.4933 -5.55112e-17
780 2 83.3574 49.958 -5.55112e-17
781 1 25.9759 171.755 -5.55112e-17
782 2 123.389 170.194 -5.55112e-17
783 1 74.2897 63.6802 -5.55112e-17
784 2 96.7842 110.444 -5.55112e-17
785 1 204.495 82.5308 -5.55112e-17
786 1 41.2723 7.08235 -5.55112e-17
787 2 38.2668 208.947 -5.55112e-17
788 2 164.78 180.438 -5.55112e-17
789 2 18.3395 147.036 -5.55112e-17
790 2 77.032 8.38509 -5.55112e-17
791 2 186.379 53.9661 -5.55112e-17
792 1 213.186 132.249 -5.55112e-17
793 1 96.9774 172.001 -5.55112e-17
794 2 209.823 6.5828 -5.55112e-17
795 2 10.8584 191.672 -5.55112e-17
796 1 69.3064 215.738 -5.55112e-17
797 1 46.2392 33.0147 -5.55112e-17
798 1 213.262 55.7067 -5.55112e-17
799 2 105.777 155.895 -5.55112e-17
800 1 56.5567 37.4073 -5.55112e-17
801 2 68.3277 84.9776 -5.55112e-17
802 1 91.4376 216.573 -5.55112e-17
803 1 143.457 24.4888 -5.55112e-17
804 1 210.094 124.757 -5.55112e-17
805 2 183.651 117.68 -5.55112e-17
806 2 178.306 158.456 -5.55112e-17
807 2 208.929 29.5195 -5.55112e-17
808 2 76.3397 144.973 -5.55112e-17
809 1 175.751 63.0407 -5.55112e-17
810 2 24.2488 173.658 -5.55112e-17
811 2 180.281 55.6122 -5.55112e-17
812 1 122.062 184.964 -5.55112e-17
813 1 22.0444 95.4584 -5.55112e-17
814 1 3.15246 204.955 -5.55112e-17
815 1 145.858 31.8442 -5.55112e-17
816 1 206.836 51.1133 -5.55112e-17
817 2 63.0832 71.1821 -5.55112e-17
818 2 29.3795 122.93 -5.55112e-17
819 2 210.565 67.887 -5.55112e-17
820 1 9.78546 58.9082 -5.55112e-17
821 1 65.2709 58.3726 -5.55112e-17
822 2 131.731 34.5337 -5.55112e-17
823 1 184.253 90.3701 -5.55112e-17
824 1 175.868 89.9355 -5.55112e-17
825 1 160.396 190.726 -5.55112e-17
826 2 178.067 81.8112 -5.55112e-17
827 2 102.412 27.3497 -5.55112e-17
828 1 50.2582 91.2338 -5.55112e-17
829 2 127.456 92.6915 -5.55112e-17
830 1 3.97209 156.617 -5.55112e-17
831 2 183.362 217.633 -5.55112e-17
832 2 26.7964 52.4305 -5.55112e-17
833 2 96.4368 41.7741 -5.55112e-17
834 1 70.679 164.047 -5.55112e-17
835 1 184.681 141.383 -5.55112e-17
836 1 153.072 69.6244 -5.55112e-17
837 2 167.735 92.3139 -5.55112e-17
838 2 92.2224 26.6225 -5.55112e-17
839 1 39.1894 31.7832 -5.55112e-17
840 2 13.5695 117.242 -5.55112e-17
841 2 201.759 10.3085 -5.55112e-17
842 1 174.151 156.954 -5.55112e-17
843 1 204.934 30.0752 -5.55112e-17
844 2 8.45839 25.5668 -5.55112e-17
845 1 46.9549 150.983 -5.55112e-17
846 2 127.797 211.285 -5.55112e-17
847 1 88.5261 143.541 -5.55112e-17
848 2 112.904 8.83273 -5.55112e-17
849 1 24.9678 32.8061 -5.55112e-17
850 2 60.0747 67.854 -5.55112e-17
851 2 216.446 30.9046 -5.55112e-17
852 1 137.325 182.617 -5.55112e-17
853 1 185.985 105.15 -5.55112e-17
854 2 103.977 144.968 -5.55112e-17
855 2 165.508 120.719 -5.55112e-17
856 1 77.3489 160.068 -5.55112e-17