ITEM: TIMESTEP
0
ITEM: NUMBER OF ATOMS
7200
ITEM: BOX BOUNDS xy xz yz pp pp pp
0.0000000000000000e+00 2.1900000000000000e+02 0.0000000000000000e+00
0.0000000000000000e+00 2.1900000000000000e+02 0.0000000000000000e+00
-3.6499999999999999e-01 3.6499999999999999e-01 0.0000000000000000e+00
ITEM: ATOMS id type x y z
1 1 81.5706 110.523 -5.55112e-17
2 2 24.2778 190.162 -5.55112e-17
3 2 142.92 89.2826 -5.55112e-17
4 1 124.496 145.801 -5.55112e-17
5 1 88.9275 91.1275 -5.55112e-17
6 1 146.925 8.01017 -5.55112e-17
7 2 166.727 142.964 -5.55112e-17
8 2 100.772 144.203 -5.55112e-17
9 1 209.214 88.6484 -5.55112e-17
10 2 129.963 0.797507 -5.55112e-17
11 2 15.7142 15.7521 -5.55112e-17
12 1 170.186 78.1445 -5.55112e-17
13 2 68.5539 158.619 -5.55112e-17
14 1 203.273 116.399 -5.55112e-17
15 2 167.261 171.996 -5.55112e-17
16 2 114.152 211.988 -5.55112e-17
17 1 33.7942 55.2139 -5.55112e-17
18 2 157.35 137.247 -5.55112e-17
19 1 72.1378 73.5048 -5.55112e-17
20 1 195.41 28.3354 -5.55112e-17
21 1 159.988 77.9928 -5.55112e-17
22 2 70.6946 179.625 -5.55112e-17
23 2 119.912 217.545 -5.55112e-17
24 2 111.034 199.236 -5.55112e-17
25 2 107.241 73.271 -5.55112e-17
26 2 172.291 118.259 -5.55112e-17
27 1 60.5873 180.731 -5.55112e-17
28 2 26.1048 156.277 -5.55112e-17
29 2 161.1 177.482 -5.55112e-17
30 2 128.537 81.2461 -5.55112e-17
31 2 115.386 148.439 -5.55112e-17
32 1 173.41 128.232 -5.55112e-17
33 2 33.812 87.1679 -5.55112e-17
34 2 0.158289 106.376 -5.55112e-17
35 2 209.988 146.666 -5.55112e-17
36 1 158.173 44.9046 -5.55112e-17
37 1 188.45 95.7048 -5.55112e-17
38 2 210.505 188.393 -5.55112e-17
39 1 99.9242 218.409 -5.55112e-17
40 2 58.6674 160.259 -5.55112e-17
41 1 122.975 213.307 -5.55112e-17
42 1 59.6145 81.8055 -5.55112e-17
43 1 162.765 11.1832 -5.55112e-17
44 1 156.93 159.562 -5.55112e-17
45 2 175.412 195.542 -5.55112e-17
46 1 144.742 188.156 -5.55112e-17
47 2 19.8385 167.484 -5.55112e-17
48 2 141.173 216.488 -5.55112e-17
49 1 39.0552 15.113 -5.55112e-17
50 2 74.6092 13.6695 -5.55112e-17
51 1 187.867 121.42 -5.55112e-17
52 1 27.3529 45.4717 -5.55112e-17
53 2 152.195 97.7732 -5.55112e-17
54 1 201.951 164.591 -5.55112e-17
55 2 152.678 7.4799 -5.55112e-17
56 1 158.909 109.869 -5.55112e-17
57 2 111.025 159.055 -5.55112e-17
58 1 117.519 15.5874 -5.55112e-17
59 1 45.0124 6.11718 -5.55112e-17
60 2 149.844 64.1275 -5.55112e-17
61 1 90.0215 27.364 -5.55112e-17
62 1 185.87 47.3456 -5.55112e-17
63 2 82.408 198.008 -5.55112e-17
64 1 163.329 8.94469 -5.55112e-17
65 2 148.115 84.559 -5.55112e-17
66 2 118.062 25.5186 -5.55112e-17
67 2 17.0585 2.69342 -5.55112e-17
68 1 100.767 52.943 -5.55112e-17
69 2 132.359 144.554 -5.55112e-17
70 1 171.836 218.862 -5.55112e-17
71 1 213.04 169.839 -5.55112e-17
72 2 123.437 193.891 -5.55112e-17
73 2 45.3019 154.511 -5.55112e-17
74 2 86.4592 195.361 -5.55112e-17
75 1 6.02907 142.934 -5.55112e-17
76 2 50.1027 154.055 -5.55112e-17
77 2 204.303 123.207 -5.55112e-17
78 1 166.086 179.178 -5.55112e-17
79 2 78.6223 55.4432 -5.55112e-17
80 1 90.2496 52.5849 -5.55112e-17
81 1 129.407 47.8823 -5.55112e-17
82 1 143.328 136.677 -5.55112e-17
83 1 48.7605 197.775 -5.55112e-17
84 2 141.156 137.607 -5.55112e-17
85 2 3.29694 131.786 -5.55112e-17
86 2 110.395 98.337 -5.55112e-17
87 2 153.913 160.775 -5.55112e-17
88 1 106.39 118.117 -5.55112e-17
89 2 129.648 74.8676 -5.55112e-17
90 2 147.585 89.8961 -5.55112e-17
91 2 93.345 161.301 -5.55112e-17
92 1 178.717 75.6864 -5.55112e-17
93 2 54.2364 122.809 -5.55112e-17
94 2 182.928 66.2744 -5.55112e-17
95 1 147.209 13.0312 -5.55112e-17
96 2 190.081 11.0823 -5.55112e-17
97 2 145.863 197.129 -5.55112e-17
98 2 50.2195 6.74159 -5.55112e-17
99 1 157.031 58.4217 -5.55112e-17
100 2 182.827 112.872 -5.55112e-17
101 1 126.681 165.915 -5.55112e-17
102 1 172.624 150.732 -5.55112e-17
103 2 191.197 56.9812 -5.55112e-17
104 2 212.872 36.3011 -5.55112e-17
105 1 32.1134 92.3063 -5.55112e-17
106 1 113.832 162.719 -5.55112e-17
107 1 25.1013 206.434 -5.55112e-17
108 1 139.048 133.722 -5.55112e-17
109 2 96.2971 138.793 -5.55112e-17
110 2 7.23615 126.344 -5.55112e-17
111 1 109.683 31.7855 -5.55112e-17
112 2 82.3443 76.0509 -5.55112e-17
113 1 54.9348 172.704 -5.55112e-17
114 1 195.099 79.8659 -5.55112e-17
115 2 60.3988 197.6 -5.55112e-17
116 2 88.2233 108.159 -5.55112e-17
117 1 183.831 143.942 -5.55112e-17
118 1 23.1349 142.505 -5.55112e-17
119 2 186.724 37.3474 -5.55112e-17
120 2 25.561 0.883157 -5.55112e-17
121 1 168.39 19.1345 -5.55112e-17
122 2 59.27 21.5524 -5.55112e-17
123 2 64.4519 155.194 -5.55112e-17
124 1 102.682 128.723 -5.55112e-17
125 1 200.793 92.7819 -5.55112e-17
126 2 77.6566 132.772 -5.55112e-17
127 2 71.4215 163.207 -5.55112e-17
128 1 196.326 142.417 -5.55112e-17
129 1 85.1283 58.7499 -5.55112e-17
130 2 213.602 188.589 -5.55112e-17
131 1 167.646 174.377 -5.55112e-17
132 1 105.054 185.928 -5.55112e-17
133 1 103.939 56.1672 -5.55112e-17
134 1 27.3646 105.1 -5.55112e-17
135 2 179.022 27.3748 -5.55112e-17
136 1 88.5023 9.67023 -5.55112e-17
137 1 124.713 218.781 -5.55112e-17
138 2 142.513 66.5563 -5.55112e-17
139 1 199.707 156.191 -5.55112e-17
140 1 110.928 153.84 -5.55112e-17
141 1 20.2891 147.796 -5.55112e-17
142 1 184.426 183.071 -5.55112e-17
143 1 27.0153 28.3889 -5.55112e-17
144 1 43.3002 78.6378 -5.55112e-17
145 2 130.996 200.819 -5.55112e-17
146 1 29.9349 145.452 -5.55112e-17
147 2 179.598 19.6363 -5.55112e-17
148 1 210.746 70.1302 -5.55112e-17
149 1 154.02 61.3845 -5.55112e-17
150 2 138.652 151.669 -5.55112e-17
151 1 175.145 88.2329 -5.55112e-17
152 1 67.9387 172.432 -5.55112e-17
153 2 214.63 175.431 -5.55112e-17
154 1 51.4163 179.672 -5.55112e-17
155 2 34.3932 149.442 -5.55112e-17
156 2 181.333 217.942 -5.55112e-17
157 2 8.09827 32.111 -5.55112e-17
158 2 28.0686 98.7466 -5.55112e-17
159 2 2.34947 66.9246 -5.55112e-17
160 2 159.011 197.627 -5.55112e-17
161 2 124.858 63.5941 -5.55112e-17
162 1 120.613 184.209 -5.55112e-17
163 1 203.331 65.1007 -5.55112e-17
164 2 51.3131 166.221 -5.55112e-17
165 1 40.7056 173.52 -5.55112e-17
166 2 183.265 86.4939 -5.55112e-17
167 1 151.251 160.506 -5.55112e-17
168 1 1.22455 175.94 -5.55112e-17
169 2 55.7306 181 -5.55112e-17
170 1 218.521 85.7587 -5.55112e-17
171 1 210.822 28.7315 -5.55112e-17
172 1 34.9108 4.52944 -5.55112e-17
173 1 95.2218 17.2265 -5.55112e-17
174 2 46.2902 131.585 -5.55112e-17
175 2 11.6543 59.0739 -5.55112e-17
176 1 144.554 62.0514 -5.55112e-17
177 2 9.55942 124.539 -5.55112e-17
178 1 111.101 3.86793 -5.55112e-17
179 2 115.648 158.083 -5.55112e-17
180 1 78.9472 213.441 -5.55112e-17
181 1 112.213 185.314 -5.55112e-17
182 1 134.223 166.294 -5.55112e-17
183 1 23.5173 182.694 -5.55112e-17
184 2 177.506 137.754 -5.55112e-17
185 2 204.779 144.577 -5.55112e-17
186 2 27.3629 194.048 -5.55112e-17
187 2 186.824 54.748 -5.55112e-17
188 2 137.947 111.777 -5.55112e-17
189 1 186.969 70.3779 -5.55112e-17
190 1 153.706 72.5509 -5.55112e-17
191 2 20.9032 162.528 -5.55112e-17
192 2 38.7194 154.723 -5.55112e-17
193 1 40.3416 152.546 -5.55112e-17
194 1 213.505 216.211 -5.55112e-17
195 2 153.387 151.336 -5.55112e-17
196 1 117.44 149.719 -5.55112e-17
197 2 213.205 79.3785 -5.55112e-17
198 2 148.839 131.458 -5.55112e-17
199 2 206.349 91.8865 -5.55112e-17
200 2 20.1561 48.7196 -5.55112e-17
201 2 171.621 68.0687 -5.55112e-17
202 1 182.196 60.6154 -5.55112e-17
203 1 106.741 133.838 -5.55112e-17
204 2 145.204 14.5023 -5.55112e-17
205 2 176.796 23.221 -5.55112e-17
206 2 86.2351 10.9192 -5.55112e-17
207 1 195.183 218.319 -5.55112e-17
208 2 86.7332 95.437 -5.55112e-17
209 2 158.032 177.072 -5.55112e-17
210 1 169.6 87.0122 -5.55112e-17
211 1 104.827 110.313 -5.55112e-17
212 1 53.4322 125.653 -5.55112e-17
213 1 78.5152 216 -5.55112e-17
214 2 176.111 77.6905 -5.55112e-17
215 1 12.0176 133.154 -5.55112e-17
216 1 147.281 94.9528 -5.55112e-17
217 1 202.468 42.1481 -5.55112e-17
218 2 101.351 161.295 -5.55112e-17
219 2 54.5696 119.529 -5.55112e-17
220 1 209.366 50.2745 -5.55112e-17
221 2 109.663 95.6618 -5.55112e-17
222 1 210.889 125.73 -5.55112e-17
223 1 37.9768 12.9605 -5.55112e-17
224 2 151.631 182.136 -5.55112e-17
225 2 30.1314 211.607 -5.55112e-17
226 1 189.876 142.48 -5.55112e-17
227 2 98.5686 114.352 -5.55112e-17
228 2 33.271 157.55 -5.55112e-17
229 1 161.395 105.269 -5.55112e-17
230 1 129.46 172.572 -5.55112e-17
231 2 200.462 60.0953 -5.55112e-17
232 1 45.4929 27.0127 -5.55112e-17
233 2 171.047 180.54 -5.55112e-17
234 1 56.8261 20.2458 -5.55112e-17
235 1 128.139 116.477 -5.55112e-17
236 2 197.277 155.531 -5.55112e-17
237 2 1.69965 160.412 -5.55112e-17
238 2 28.2313 80.6215 -5.55112e-17
239 1 192.398 152.199 -5.55112e-17
240 1 102.694 134.265 -5.55112e-17
241 2 68.947 70.0579 -5.55112e-17
242 1 140.359 59.3261 -5.55112e-17
243 2 113.524 102.15 -5.55112e-17
244 2 142.273 63.2475 -5.55112e-17
245 1 51.5252 82.8926 -5.55112e-17
246 2 17.0461 42.6769 -5.55112e-17
247 2 73.6201 99.9965 -5.55112e-17
248 1 38.4573 145.688 -5.55112e-17
249 1 218.801 173.535 -5.55112e-17
250 1 34.1037 177.334 -5.55112e-17
251 2 177.511 12.0543 -5.55112e-17
252 1 140.717 55.0612 -5.55112e-17
253 2 181.378 94.0073 -5.55112e-17
254 2 109.382 148.506 -5.55112e-17
255 2 42.0214 65.4298 -5.55112e-17
256 1 40.9633 83.0902 -5.55112e-17
257 2 15.9866 218.724 -5.55112e-17
258 1 34.5843 6.6308 -5.55112e-17
259 2 17.0158 168.571 -5.55112e-17
260 1 201.986 114.471 -5.55112e-17
261 2 55.265 169.995 -5.55112e-17
262 2 3.08827 61.5675 -5.55112e-17
263 2 151.737 74.6583 -5.55112e-17
264 1 188.798 22.7541 -5.55112e-17
265 1 60.8139 169.332 -5.55112e-17
266 1 78.1337 26.2631 -5.55112e-17
267 2 49.1253 104.868 -5.55112e-17
268 1 173.506 168.203 -5.55112e-17
269 2 146.304 19.137 -5.55112e-17
270 2 146.429 60.0321 -5.55112e-17
271 2 25.3509 112.845 -5.55112e-17
272 1 96.7835 198.095 -5.55112e-17
273 1 112.62 175.09 -5.55112e-17
274 1 210.891 43.2625 -5.55112e-17
275 1 72.6914 196.039 -5.55112e-17
276 1 37.5579 35.7925 -5.55112e-17
277 1 96.9421 59.2825 -5.55112e-17
278 2 64.564 60.2903 -5.55112e-17
279 2 194.801 200.876 -5.55112e-17
280 1 49.0721 112.896 -5.55112e-17
281 2 75.5367 209.977 -5.55112e-17
282 2 33.6093 57.9876 -5.55112e-17
283 2 61.6941 112.114 -5.55112e-17
284 1 60.0567 118.494 -5.55112e-17
285 1 21.5866 160.067 -5.55112e-17
286 2 53.6731 38.8783 -5.55112e-17
287 2 198.047 87.7851 -5.55112e-17
288 1 44.9359 11.393 -5.55112e-17
289 2 103.372 156.476 -5.55112e-17
290 1 170.252 135.959 -5.55112e-17
291 2 5.93844 95.3153 -5.55112e-17
292 1 123.996 117.63 -5.55112e-17
293 1 198.885 74.7871 -5.55112e-17
294 1 35.1685 109.517 -5.55112e-17
295 2 197.687 64.738 -5.55112e-17
296 1 153.666 70.4629 -5.55112e-17
297 1 168.008 188.765 -5.55112e-17
298 2 66.3788 34.8375 -5.55112e-17
299 1 54.9745 135.635 -5.55112e-17
300 2 121.183 8.82336 -5.55112e-17
301 2 139.868 93.3636 -5.55112e-17
302 2 142.449 32.0776 -5.55112e-17
303 1 164.549 214.451 -5.55112e-17
304 1 184.859 128.973 -5.55112e-17
305 1 170.019 75.9843 -5.55112e-17
306 2 89.4033 85.3899 -5.55112e-17
307 2 29.4254 152.302 -5.55112e-17
308 2 184.653 200.997 -5.55112e-17
309 1 108.104 114.276 -5.55112e-17
310 1 174.957 152.394 -5.55112e-17
311 1 130.756 31.1913 -5.55112e-17
312 2 110.661 101.683 -5.55112e-17
313 2 200.27 215.555 -5.55112e-17
314 1 183.478 189.591 -5.55112e-17
315 2 195.062 54.9378 -5.55112e-17
316 1 86.0075 63.8393 -5.55112e-17
317 1 64.6282 160.917 -5.55112e-17
318 1 13.3848 16.3172 -5.55112e-17
319 2 149.296 113.914 -5.55112e-17
320 1 125.289 132.617 -5.55112e-17
321 1 7.92465 73.2353 -5.55112e-17
322 1 175.066 180.844 -5.55112e-17
323 2 70.5513 15.6143 -5.55112e-17
324 2 124.369 66.5275 -5.55112e-17
325 2 145.296 110.28 -5.55112e-17
326 1 104.769 51.8618 -5.55112e-17
327 1 132.719 71.7408 -5.55112e-17
328 2 15.9969 200.308 -5.55112e-17
329 2 215.672 49.8073 -5.55112e-17
330 2 190.312 113.555 -5.55112e-17
331 2 136.465 83.0894 -5.55112e-17
332 2 117.959 163.221 -5.55112e-17
333 2 77.6028 84.6721 -5.55112e-17
334 2 74.3152 17.8182 -5.55112e-17
335 1 158.135 183.19 -5.55112e-17
336 2 165.63 209.088 -5.55112e-17
337 2 87.1349 163.284 -5.55112e-17
338 1 149.323 134.064 -5.55112e-17
339 2 134.696 67.6441 -5.55112e-17
340 2 192.899 126.316 -5.55112e-17
341 2 131.752 87.7688 -5.55112e-17
342 2 163.853 191.024 -5.55112e-17
343 2 197.913 212.047 -5.55112e-17
344 1 204.286 10.4559 -5.55112e-17
345 2 28.7661 85.4221 -5.55112e-17
346 2 100.002 43.4714 -5.55112e-17
347 1 170.109 89.3228 -5.55112e-17
348 1 152.407 118.723 -5.55112e-17
349 2 22.2795 14.5687 -5.55112e-17
350 2 213.542 92.1582 -5.55112e-17
351 1 117.953 130.929 -5.55112e-17
352 1 64.487 3.50179 -5.55112e-17
353 2 85.5075 159.258 -5.55112e-17
354 2 126.513 26.0584 -5.55112e-17
355 1 65.9967 5.84425 -5.55112e-17
356 2 10.8321 108.452 -5.55112e-17
357 1 52.1431 121.193 -5.55112e-17
358 1 45.7301 89.5825 -5.55112e-17
359 1 118.31 35.7541 -5.55112e-17
360 1 87.234 147.764 -5.55112e-17
361 2 5.7518 150.175 -5.55112e-17
362 2 125.746 192.373 -5.55112e-17
363 1 7.89575 187.483 -5.55112e-17
364 2 0.218243 27.0049 -5.55112e-17
365 1 58.1335 66.8318 -5.55112e-17
366 1 109.515 93.0433 -5.55112e-17
367 1 190.931 26.7558 -5.55112e-17
368 1 17.862 90.7873 -5.55112e-17
369 2 203.453 169.451 -5.55112e-17
370 1 110.804 87.2548 -5.55112e-17
371 2 101.511 15.1733 -5.55112e-17
372 1 184.126 131.816 -5.55112e-17
373 2 142.879 198.02 -5.55112e-17
374 2 3.0571 198.943 -5.55112e-17
375 1 42.1348 180.534 -5.55112e-17
376 1 93.4518 137.731 -5.55112e-17
377 2 123.48 130.208 -5.55112e-17
378 2 17.0224 133.518 -5.55112e-17
379 2 159.45 158.858 -5.55112e-17
380 1 161.972 55.1398 -5.55112e-17
381 1 98.5955 196.676 -5.55112e-17
382 1 160.911 125.637 -5.55112e-17
383 1 184.672 90.8349 -5.55112e-17
384 2 149.697 210.032 -5.55112e-17
385 1 182.964 195.016 -5.55112e-17
386 2 85.7344 214.386 -5.55112e-17
387 1 58.5062 91.1826 -5.55112e-17
388 1 185.662 151.915 -5.55112e-17
389 2 172.988 130.693 -5.55112e-17
390 1 127.443 176.924 -5.55112e-17
391 1 165.876 203.092 -5.55112e-17
392 2 60.6948 16.4884 -5.55112e-17
393 2 203.789 136.959 -5.55112e-17
394 1 102.935 148.798 -5.55112e-17
395 1 124.03 139.208 -5.55112e-17
396 2 135.259 103.211 -5.55112e-17
397 1 170.587 163.927 -5.55112e-17
398 2 191.411 187.931 -5.55112e-17
399 2 10.0861 67.6053 -5.55112e-17
400 2 182.883 96.6352 -5.55112e-17
401 2 55.2953 139.531 -5.55112e-17
402 1 148.558 26.3191 -5.55112e-17
403 1 193.173 164.298 -5.55112e-17
404 2 138.755 178.983 -5.55112e-17
405 1 173.973 176.314 -5.55112e-17
406 2 156.925 156.801 -5.55112e-17
407 1 163.804 114.498 -5.55112e-17
408 1 58.0029 33.8032 -5.55112e-17
409 2 193.637 211.697 -5.55112e-17
410 2 131.234 162.225 -5.55112e-17
411 1 142.754 44.1357 -5.55112e-17
412 1 149.546 90.9973 -5.55112e-17
413 1 209.745 101.612 -5.55112e-17
414 2 61.6727 12.3324 -5.55112e-17
415 1 24.1941 118.149 -5.55112e-17
416 1 185.48 191.53 -5.55112e-17
417 2 13.1994 217.644 -5.55112e-17
418 2 73.8992 193.659 -5.55112e-17
419 2 175.838 108.75 -5.55112e-17
420 2 83.2733 123.165 -5.55112e-17
421 1 103.767 205.944 -5.55112e-17
422 1 157.231 217.629 -5.55112e-17
423 2 163.438 0.687496 -5.55112e-17
424 2 82.8448 186.861 -5.55112e-17
425 2 1.96088 207.117 -5.55112e-17
426 1 39.2 75.4035 -5.55112e-17
427 2 191.246 83.5025 -5.55112e-17
428 1 77.7459 79.7226 -5.55112e-17
429 2 113.593 128.149 -5.55112e-17
430 2 69.797 25.2505 -5.55112e-17
431 1 202.872 197.778 -5.55112e-17
432 2 139.837 96.6721 -5.55112e-17
433 1 195.227 7.62065 -5.55112e-17
434 1 113.998 33.104 -5.55112e-17
435 1 133.587 211.27 -5.55112e-17
436 2 150.835 56.359 -5.55112e-17
437 2 36.2349 85.3043 -5.55112e-17
438 2 207.9 165.388 -5.55112e-17
439 2 49.2162 193.092 -5.55112e-17
440 2 216.807 87.8517 -5.55112e-17
441 1 47.5387 145.52 -5.55112e-17
442 1 25.2149 98.6515 -5.55112e-17
443 2 97.3343 181.786 -5.55112e-17
444 1 207.9 187.747 -5.55112e-17
445 1 210.971 139.809 -5.55112e-17
446 2 112.549 188.13 -5.55112e-17
447 2 28.8035 142.893 -5.55112e-17
448 2 142.091 206.103 -5.55112e-17
449 1 123.696 168.221 -5.55112e-17
450 1 161.235 192.082 -5.55112e-17
451 1 97.0098 214.471 -5.55112e-17
452 2 136.599 161.559 -5.55112e-17
453 1 116.135 108.167 -5.55112e-17
454 1 199.713 160.371 -5.55112e-17
455 2 82.1328 120.397 -5.55112e-17
456 1 9.50663 194.428 -5.55112e-17
457 2 95.3111 135.906 -5.55112e-17
458 2 204.884 19.2012 -5.55112e-17
459 2 161.16 80.215 -5.55112e-17
460 1 64.1814 148.96 -5.55112e-17
461 1 106.026 177.632 -5.55112e-17
462 1 155.693 135.045 -5.55112e-17
463 2 86.7629 154.012 -5.55112e-17
464 2 131.88 103.998 -5.55112e-17
465 1 65.9134 206.81 -5.55112e-17
466 2 136.726 116.774 -5.55112e-17
467 2 24.9422 132.622 -5.55112e-17
468 2 67.0794 3.47276 -5.55112e-17
469 2 79.477 74.9593 -5.55112e-17
470 2 128.482 160.988 -5.55112e-17
471 2 193.452 87.001 -5.55112e-17
472 2 36.6324 130.444 -5.55112e-17
473 2 112.637 165.036 -5.55112e-17
474 2 54.539 216.988 -5.55112e-17
475 1 181.605 23.2466 -5.55112e-17
476 2 10.0401 116.208 -5.55112e-17
477 1 60.7649 215.116 -5.55112e-17
478 1 11.1439 52.2627 -5.55112e-17
479 2 31.5554 48.1259 -5.55112e-17
480 1 218.944 111.092 -5.55112e-17
481 1 204.963 94.3397 -5.55112e-17
482 2 108.362 65.1436 -5.55112e-17
483 1 170.809 196.801 -5.55112e-17
484 1 50.8571 141.901 -5.55112e-17
485 2 44.5925 35.9226 -5.55112e-17
486 1 168.729 91.3698 -5.55112e-17
487 1 123.987 152.585 -5.55112e-17
488 1 218.118 149.331 -5.55112e-17
489 1 184.066 22.3446 -5.55112e-17
490 1 5.70785 26.9706 -5.55112e-17
491 1 195.72 146.936 -5.55112e-17
492 2 166.501 113.094 -5.55112e-17
493 1 109.051 67.7865 -5.55112e-17
494 2 109.563 39.0446 -5.55112e-17
495 1 102.92 174.512 -5.55112e-17
496 1 0.184832 164.274 -5.55112e-17
497 1 156.161 35.2533 -5.55112e-17
498 2 207.397 6.06029 -5.55112e-17
499 2 212.112 100.347 -5.55112e-17
500 2 116.281 204.877 -5.55112e-17
501 2 71.0488 8.10091 -5.55112e-17
502 2 19.35 145.346 -5.55112e-17
503 2 5.7788 111.165 -5.55112e-17
504 2 106.257 149.448 -5.55112e-17
505 2 176.032 65.4766 -5.55112e-17
506 1 21.5542 194.752 -5.55112e-17
507 2 24.9067 81.4596 -5.55112e-17
508 1 159.188 119.618 -5.55112e-17
509 1 207.761 175.757 -5.55112e-17
510 1 157.444 199.424 -5.55112e-17
511 2 138.418 36.7626 -5.55112e-17
512 1 116.249 85.3966 -5.55112e-17
513 2 155.514 94.998 -5.55112e-17
514 2 133.493 37.9176 -5.55112e-17
515 1 39.8032 47.6846 -5.55112e-17
516 2 0.394225 181.612 -5.55112e-17
517 1 30.3367 90.8065 -5.55112e-17
518 2 212.138 50.8036 -5.55112e-17
519 1 30.8358 122.235 -5.55112e-17
520 2 209.023 11.1742 -5.55112e-17
521 2 92.5347 198.44 -5.55112e-17
522 1 15.275 211.552 -5.55112e-17
523 1 72.1108 102.271 -5.55112e-17
524 2 102.019 95.8401 -5.55112e-17
525 2 35.8834 41.2589 -5.55112e-17
526 2 170.179 173.244 -5.55112e-17
527 1 173.642 109.897 -5.55112e-17
528 1 117.589 87.2566 -5.55112e-17
529 2 51.045 16.3982 -5.55112e-17
530 2 215.193 3.71526 -5.55112e-17
531 2 85.4864 217.551 -5.55112e-17
532 1 66.694 25.8531 -5.55112e-17
533 2 82.4759 58.3832 -5.55112e-17
534 1 114.314 94.5332 -5.55112e-17
535 1 169.67 201.186 -5.55112e-17
536 2 76.0371 126.943 -5.55112e-17
537 1 79.2666 33.3128 -5.55112e-17
538 1 152.199 108.073 -5.55112e-17
539 2 42.7492 139.157 -5.55112e-17
540 1 88.4635 79.0713 -5.55112e-17
541 1 113.978 136.879 -5.55112e-17
542 1 123.106 10.901 -5.55112e-17
543 2 81.5587 142.16 -5.55112e-17
544 1 145.572 105.188 -5.55112e-17
545 1 8.22078 149.66 -5.55112e-17
546 2 70.3423 132.195 -5.55112e-17
547 1 26.2919 100.939 -5.55112e-17
548 1 19.7572 125.648 -5.55112e-17
549 2 125.753 10.1425 -5.55112e-17
550 2 160.249 204.15 -5.55112e-17
551 2 80.52 2.33806 -5.55112e-17
552 1 34.4166 204.631 -5.55112e-17
553 2 149.178 159.369 -5.55112e-17
554 2 194.647 59.5093 -5.55112e-17
555 2 35.1088 164.205 -5.55112e-17
556 1 72.6767 30.9382 -5.55112e-17
557 1 65.2111 15.22 -5.55112e-17
558 1 142.184 98.0791 -5.55112e-17
559 2 167.21 13.7275 -5.55112e-17
560 2 77.5005 108.334 -5.55112e-17
561 2 2.40471 142.478 -5.55112e-17
562 2 179.194 140.35 -5.55112e-17
563 1 185.452 107.705 -5.55112e-17
564 2 98.9933 2.01131 -5.55112e-17
565 2 160.158 136.169 -5.55112e-17
566 2 143.349 127.99 -5.55112e-17
567 1 67.8205 45.1649 -5.55112e-17
568 1 122.801 68.5839 -5.55112e-17
569 2 212.747 177.88 -5.55112e-17
570 2 49.0724 206.727 -5.55112e-17
571 2 198.301 117.62 -5.55112e-17
572 1 103.679 159.559 -5.55112e-17
573 2 10.1236 189.144 -5.55112e-17
574 2 204.574 67.223 -5.55112e-17
575 1 211.184 112.058 -5.55112e-17
576 1 71.1849 38.2104 -5.55112e-17
577 1 200.011 41.1848 -5.55112e-17
578 1 89.1071 140.253 -5.55112e-17
579 2 91.8024 57.6743 -5.55112e-17
580 1 126.848 156.057 -5.55112e-17
581 1 118.171 202.571 -5.55112e-17
582 2 10.7611 84.9454 -5.55112e-17
583 2 66.82 109.45 -5.55112e-17
584 2 202.272 187.07 -5.55112e-17
585 1 122.052 209.96 -5.55112e-17
586 1 28.5795 48.1795 -5.55112e-17
587 1 9.73834 60.688 -5.55112e-17
588 2 74.3738 68.863 -5.55112e-17
589 1 16.5567 81.3593 -5.55112e-17
590 2 201.123 183.998 -5.55112e-17
591 2 137.42 66.2768 -5.55112e-17
592 1 101.273 178.552 -5.55112e-17
593 1 129.196 38.7147 -5.55112e-17
594 1 117.77 179.366 -5.55112e-17
595 1 137.995 9.90746 -5.55112e-17
596 2 159.841 168.438 -5.55112e-17
597 2 156.911 61.1836 -5.55112e-17
598 2 107.429 203.036 -5.55112e-17
599 2 48.1412 203.782 -5.55112e-17
600 2 115.589 214.545 -5.55112e-17
601 1 117.843 139.28 -5.55112e-17
602 1 188.744 2.86965 -5.55112e-17
603 2 97.4247 126.301 -5.55112e-17
604 1 97.9418 140.504 -5.55112e-17
605 2 202.961 81.217 -5.55112e-17
606 2 9.07259 133.339 -5.55112e-17
607 2 37.0625 147.783 -5.55112e-17
608 2 101.943 153.664 -5.55112e-17
609 1 190.363 192.758 -5.55112e-17
610 2 166.958 123.339 -5.55112e-17
611 1 170.583 20.3645 -5.55112e-17
612 1 139.366 70.6754 -5.55112e-17
613 2 135.409 195.129 -5.55112e-17
614 1 128.759 199.531 -5.55112e-17
615 1 160.021 179.668 -5.55112e-17
616 2 214.776 62.1388 -5.55112e-17
617 1 59.3606 145.488 -5.55112e-17
618 1 203.294 34.2678 -5.55112e-17
619 1 83.088 70.5455 -5.55112e-17
620 2 167.808 74.8461 -5.55112e-17
621 2 148.159 215.423 -5.55112e-17
622 2 44.5338 199.729 -5.55112e-17
623 2 152.64 217.993 -5.55112e-17
624 1 191.504 100.624 -5.55112e-17
625 2 200.464 46.4329 -5.55112e-17
626 1 69.1574 214.791 -5.55112e-17
627 2 143 92.635 -5.55112e-17
628 1 89.5637 131.247 -5.55112e-17
629 1 35.8708 95.842 -5.55112e-17
630 2 54.1635 161.804 -5.55112e-17
631 2 135.22 21.3059 -5.55112e-17
632 2 165.084 43.9863 -5.55112e-17
633 2 89.142 175.404 -5.55112e-17
634 2 57.9311 40.5972 -5.55112e-17
635 2 77.3511 89.6066 -5.55112e-17
636 1 200.253 133.131 -5.55112e-17
637 1 98.1309 30.6745 -5.55112e-17
638 1 135.414 0.746829 -5.55112e-17
639 2 200.95 205.304 -5.55112e-17
640 2 208.304 70.6141 -5.55112e-17
641 1 191.614 119.347 -5.55112e-17
642 2 165.445 181.512 -5.55112e-17
643 1 193.843 187.216 -5.55112e-17
644 2 106.827 155.568 -5.55112e-17
645 2 19.1081 175.201 -5.55112e-17
646 1 198.728 110.792 -5.55112e-17
647 2 108.099 166.208 -5.55112e-17
648 2 152.066 187.365 -5.55112e-17
649 1 89.841 77.0042 -5.55112e-17
650 1 90.7858 108.382 -5.55112e-17
651 1 65.5677 146.662 -5.55112e-17
652 2 73.8084 6.18853 -5.55112e-17
653 2 67.3548 51.2058 -5.55112e-17
654 1 157.312 139.93 -5.55112e-17
655 1 148.41 78.7738 -5.55112e-17
656 1 147.184 63.0914 -5.55112e-17
657 1 5.03222 194.382 -5.55112e-17
658 2 47.3868 137.103 -5.55112e-17
659 2 85.7877 1.56222 -5.55112e-17
660 1 136.047 8.93034 -5.55112e-17
661 2 96.1442 47.2974 -5.55112e-17
662 2 77.7131 18.0344 -5.55112e-17
663 1 162.988 51.6382 -5.55112e-17
664 1 91.8445 103.358 -5.55112e-17
665 1 138.963 217.871 -5.55112e-17
666 1 59.5539 185.554 -5.55112e-17
667 1 178.511 124.095 -5.55112e-17
668 1 177.035 200.338 -5.55112e-17
669 1 75.1431 212.449 -5.55112e-17
670 2 72.9882 3.08652 -5.55112e-17
671 1 188.446 132.985 -5.55112e-17
672 1 191.035 132.07 -5.55112e-17
673 2 51.5522 21.1877 -5.55112e-17
674 2 26.2475 67.7864 -5.55112e-17
675 2 97.8076 155.842 -5.55112e-17
676 1 41.6237 67.8457 -5.55112e-17
677 2 84.946 61.0727 -5.55112e-17
678 1 180.039 96.6369 -5.55112e-17
679 1 58.6775 103.8 -5.55112e-17
680 2 73.6924 76.0207 -5.55112e-17
681 1 152.027 113.059 -5.55112e-17
682 1 38.1793 3.29262 -5.55112e-17
683 2 28.4985 160.577 -5.55112e-17
684 1 177.183 165.361 -5.55112e-17
685 1 150.084 169.867 -5.55112e-17
686 1 71.4687 117.095 -5.55112e-17
687 1 29.9549 149.647 -5.55112e-17
688 1 170.295 151.752 -5.55112e-17
689 2 203.643 162.136 -5.55112e-17
690 1 123.414 97.2932 -5.55112e-17
691 2 14.0443 81.794 -5.55112e-17
692 2 100.796 18.5085 -5.55112e-17
693 1 162.2 169.794 -5.55112e-17
694 2 16.0417 95.4947 -5.55112e-17
695 2 174.44 199.863 -5.55112e-17
696 2 139.244 189.844 -5.55112e-17
697 1 33.6277 168.298 -5.55112e-17
698 2 139.108 109.023 -5.55112e-17
699 1 131.581 147.101 -5.55112e-17
700 2 127.338 70.6027 -5.55112e-17
701 2 135.517 143.944 -5.55112e-17
702 1 80.0646 163.159 -5.55112e-17
703 1 78.0401 87.0817 -5.55112e-17
704 1 100.249 30.6668 -5.55112e-17
705 1 92.5175 6.49206 -5.55112e-17
706 1 141.433 152.429 -5.55112e-17
707 1 40.383 169.193 -5.55112e-17
708 2 64.7265 63.4506 -5.55112e-17
709 1 155.251 218.737 -5.55112e-17
710 2 39.3245 108.727 -5.55112e-17
711 2 33.9287 179.962 -5.55112e-17
712 1 124.942 205.729 -5.55112e-17
713 1 27.6286 75.0658 -5.55112e-17
714 2 124.914 2.69062 -5.55112e-17
715 2 144.624 107.449 -5.55112e-17
716 1 28.5573 157.121 -5.55112e-17
717 1 89.6865 21.8745 -5.55112e-17
718 2 128.216 141.676 -5.55112e-17
719 1 17.7489 166.025 -5.55112e-17
720 2 166.293 56.5755 -5.55112e-17
721 2 71.5557 137.29 -5.55112e-17
722 2 90.2269 115.831 -5.55112e-17
723 2 58.0126 5.45462 -5.55112e-17
724 2 142.046 169.395 -5.55112e-17
725 2 137.88 16.6701 -5.55112e-17
726 2 18.4212 155.347 -5.55112e-17
727 2 36.8402 31.4145 -5.55112e-17
728 1 168.779 28.4833 -5.55112e-17
729 2 171.587 161.228 -5.55112e-17
730 2 165.848 7.75374 -5.55112e-17
731 1 168.524 150.42 -5.55112e-17
732 2 4.11955 147.245 -5.55112e-17
733 2 155.525 32.6133 -5.55112e-17
734 2 176.084 9.31838 -5.55112e-17
735 2 113.565 113.518 -5.55112e-17
736 1 125.048 72.1141 -5.55112e-17
737 2 192.878 65.0874 -5.55112e-17
738 2 59.5163 26.9087 -5.55112e-17
739 2 78.2122 14.8978 -5.55112e-17
740 2 180.593 204.715 -5.55112e-17
741 2 90.1427 71.0556 -5.55112e-17
742 1 21.5803 205.636 -5.55112e-17
743 2 16.8718 130.729 -5.55112e-17
744 1 113.422 73.4275 -5.55112e-17
745 2 132.942 62.2505 -5.55112e-17
746 1 19.6314 59.3092 -5.55112e-17
747 1 8.48066 143.461 -5.55112e-17
748 2 200.471 82.5984 -5.55112e-17
749 1 213.077 13.4552 -5.55112e-17
750 1 151.599 189.919 -5.55112e-17
751 1 212.338 197.85 -5.55112e-17
752 2 80.0129 113.418 -5.55112e-17
753 1 51.5428 64.5088 -5.55112e-17
754 2 117.48 63.0841 -5.55112e-17
755 1 30.8446 161.301 -5.55112e-17
756 2 114.034 160.212 -5.55112e-17
757 1 4.9371 217.956 -5.55112e-17
758 2 84.7419 13.8084 -5.55112e-17
759 1 145.101 122.547 -5.55112e-17
760 1 84.6649 208.207 -5.55112e-17
761 2 47.5928 169.385 -5.55112e-17
762 1 157.997 32.7961 -5.55112e-17
763 2 67.8468 7.78731 -5.55112e-17
764 2 88.8383 88.379 -5.55112e-17
765 1 207.368 132.809 -5.55112e-17
766 2 121.395 57.6575 -5.55112e-17
767 2 106.439 104.695 -5.55112e-17
768 2 65.5266 28.4455 -5.55112e-17
769 2 12.6768 130.236 -5.55112e-17
770 1 173.561 197.274 -5.55112e-17
771 1 62.2485 61.3364 -5.55112e-17
772 1 80.0335 131.599 -5.55112e-17
773 2 152.678 140.961 -5.55112e-17
774 1 44.1257 107.645 -5.55112e-17
775 1 188.934 156.059 -5.55112e-17
776 2 144.706 96.9615 -5.55112e-17
777 2 35.1859 44.5996 -5.55112e-17
778 1 17.2803 5.57696 -5.55112e-17
779 1 95.7792 105.167 -5.55112e-17
780 2 194.188 173.355 -5.55112e-17
781 1 132.797 85.4909 -5.55112e-17
782 2 23.3722 175.443 -5.55112e-17
783 1 153.873 34.6377 -5.55112e-17
784 2 108.125 33.8471 -5.55112e-17
785 1 18.6834 25.9627 -5.55112e-17
786 1 73.3792 64.0852 -5.55112e-17
787 2 143.75 20.9527 -5.55112e-17
788 2 186.262 4.37926 -5.55112e-17
789 2 121.387 6.17854 -5.55112e-17
790 2 149.931 88.1097 -5.55112e-17
791 2 143.603 139.786 -5.55112e-17
792 1 150.875 43.9269 -5.55112e-17
793 1 176.991 133.39 -5.55112e-17
794 2 17.5706 148.068 -5.55112e-17
795 2 76.3839 50.1218 -5.55112e-17
796 1 46.2499 197.953 -5.55112e-17
797 1 192.571 196.829 -5.55112e-17
798 1 31.9185 153.11 -5.55112e-17
799 2 48.2298 20.7137 -5.55112e-17
800 1 152.05 168.565 -5.55112e-17
801 2 115.737 27.3504 -5.55112e-17
802 1 1.93952 51.3063 -5.55112e-17
803 1 3.33794 39.653 -5.55112e-17
804 1 216.418 59.7082 -5.55112e-17
805 2 148.122 43.8439 -5.55112e-17
806 2 60.148 204.434 -5.55112e-17
807 2 184.988 208.475 -5.55112e-17
808 2 98.5801 5.05533 -5.55112e-17
809 1 15.5462 37.6452 -5.55112e-17
810 2 96.7801 73.7566 -5.55112e-17
811 2 176.846 101.275 -5.55112e-17
812 1 48.3281 93.9958 -5.55112e-17
813 1 173.477 203.652 -5.55112e-17
814 1 53.8706 10.206 -5.55112e-17
815 1 96.935 49.6298 -5.55112e-17
816 1 98.2188 45.0069 -5.55112e-17
817 2 97.2073 119.224 -5.55112e-17
818 2 112.932 23.557 -5.55112e-17
819 2 130.773 150.329 -5.55112e-17
820 1 159.947 152.117 -5.55112e-17
821 1 10.55 103.315 -5.55112e-17
822 2 114.446 142.762 -5.55112e-17
823 1 11.2399 165.479 -5.55112e-17
824 1 210.881 134.398 -5.55112e-17
825 1 140.645 0.3027 -5.55112e-17
826 2 162.909 24.5009 -5.55112e-17
827 2 151.832 138.12 -5.55112e-17
828 1 36.85 46.4159 -5.55112e-17
829 2 151.962 53.7292 -5.55112e-17
830 1 94.2497 123.026 -5.55112e-17
831 2 160.039 171.639 -5.55112e-17
832 2 47.6276 101.335 -5.55112e-17
833 2 119.079 40.6177 -5.55112e-17
834 1 14.1863 162.258 -5.55112e-17
835 1 198.533 33.1977 -5.55112e-17
836 1 130.599 195.442 -5.55112e-17
837 2 126.229 163.083 -5.55112e-17
838 2 169.927 156.775 -5.55112e-17
839 1 74.3143 188.818 -5.55112e-17
840 2 136.91 166.051 -5.55112e-17
841 2 65.2075 158.395 -5.55112e-17
842 1 111.15 11.3504 -5.55112e-17
843 1 49.8517 102.304 -5.55112e-17
844 2 113.688 216.732 -5.55112e-17
845 1 40.7541 43.2754 -5.55112e-17
846 2 194.965 5.17501 -5.55112e-17
847 1 94.996 186.11 -5.55112e-17
848 2 27.358 5.88189 -5.55112e-17
849 1 17.2601 186.237 -5.55112e-17
850 2 164.057 36.9117 -5.55112e-17
851 2 97.2344 169.309 -5.55112e-17
852 1 208.026 207.689 -5.55112e-17
853 1 93.5304 66.3487 -5.55112e-17
854 2 203.87 13.2298 -5.55112e-17
855 2 204.918 199.239 -5.55112e-17
856 1 76.0424 143.218 -5.55112e-17