ITEM: TIMESTEP
0
ITEM: NUMBER OF ATOMS
7200
ITEM: BOX BOUNDS xy xz yz pp pp pp
0.0000000000000000e+00 2.1900000000000000e+02 0.0000000000000000e+00
0.0000000000000000e+00 2.1900000000000000e+02 0.0000000000000000e+00
-3.6499999999999999e-01 3.6499999999999999e-01 0.0000000000000000e+00
ITEM: ATOMS id type x y z
1 1 183.103 12.5545 -5.55112e-17
2 2 188.417 183.307 -5.55112e-17
3 2 144.753 189.363 -5.55112e-17
4 1 123.065 110.144 -5.55112e-17
5 1 101.215 122.784 -5.55112e-17
6 1 104.627 25.4568 -5.55112e-17
7 2 159.05 128.732 -5.55112e-17
8 2 70.0469 25.7039 -5.55112e-17
9 1 21.983 214.767 -5.55112e-17
10 2 52.8148 166.727 -5.55112e-17
11 2 210.172 100.285 -5.55112e-17
12 1 33.6399 197.541 -5.55112e-17
13 2 194.133 53.4994 -5.55112e-17
14 1 57.8701 185.018 -5.55112e-17
15 2 192.995 218.763 -5.55112e-17
16 2 218.3 85.6385 -5.55112e-17
17 1 67.2328 74.3771 -5.55112e-17
18 2 10.3976 172.325 -5.55112e-17
19 1 92.8397 130.337 -5.55112e-17
20 1 72.5462 10.9938 -5.55112e-17
21 1 156.763 7.59523 -5.55112e-17
22 2 31.8596 212.639 -5.55112e-17
23 2 43.5082 208.085 -5.55112e-17
24 2 218.886 102.685 -5.55112e-17
25 2 30.4779 207.827 -5.55112e-17
26 2 149.543 27.8265 -5.55112e-17
27 1 217.363 162.165 -5.55112e-17
28 2 54.4842 155.147 -5.55112e-17
29 2 83.7766 4.04775 -5.55112e-17
30 2 132.385 37.472 -5.55112e-17
31 2 156.881 83.7906 -5.55112e-17
32 1 48.2589 109.161 -5.55112e-17
33 2 145.291 87.0736 -5.55112e-17
34 2 16.068 96.1666 -5.55112e-17
35 2 127.121 11.3969 -5.55112e-17
36 1 160.214 146.55 -5.55112e-17
37 1 133.618 184.982 -5.55112e-17
38 2 209.287 157.546 -5.55112e-17
39 1 7.73877 38.0378 -5.55112e-17
40 2 196.053 73.5298 -5.55112e-17
41 1 192.54 72.9644 -5.55112e-17
42 1 54.6909 58.5206 -5.55112e-17
43 1 210.932 132.146 -5.55112e-17
44 1 155.168 188.447 -5.55112e-17
45 2 159.342 61.3891 -5.55112e-17
46 1 124.189 192.683 -5.55112e-17
47 2 88.9275 80.5045 -5.55112e-17
48 2 150.689 129.985 -5.55112e-17
49 1 194.18 199.829 -5.55112e-17
50 2 28.9533 47.3844 -5.55112e-17
51 1 186.042 2.69955 -5.55112e-17
52 1 115.929 48.1539 -5.55112e-17
53 2 55.1061 201.149 -5.55112e-17
54 1 38.6938 16.7672 -5.55112e-17
55 2 53.7926 141.627 -5.55112e-17
56 1 31.381 132.449 -5.55112e-17
57 2 58.5422 134.011 -5.55112e-17
58 1 186.238 34.3721 -5.55112e-17
59 1 157.858 86.3368 -5.55112e-17
60 2 205.97 59.0725 -5.55112e-17
61 1 157.229 164.489 -5.55112e-17
62 1 106.517 111.496 -5.55112e-17
63 2 108.892 39.2401 -5.55112e-17
64 1 28.1786 18.1304 -5.55112e-17
65 2 152.842 149.394 -5.55112e-17
66 2 13.5741 154.731 -5.55112e-17
67 2 183.128 107.38 -5.55112e-17
68 1 136.953 83.3954 -5.55112e-17
69 2 109.689 168.823 -5.55112e-17
70 1 142.207 98.1057 -5.55112e-17
71 1 198.33 147.686 -5.55112e-17
72 2 45.1031 157.67 -5.55112e-17
73 2 191.776 179.328 -5.55112e-17
74 2 110.752 67.09 -5.55112e-17
75 1 15.271 136.753 -5.55112e-17
76 2 137.931 206.638 -5.55112e-17
77 2 168.614 15.6274 -5.55112e-17
78 1 93.7163 208.495 -5.55112e-17
79 2 60.4498 75.5771 -5.55112e-17
80 1 50.311 22.5598 -5.55112e-17
81 1 181.403 210.835 -5.55112e-17
82 1 173.287 41.172 -5.55112e-17
83 1 71.1659 91.1095 -5.55112e-17
84 2 140.932 179.507 -5.55112e-17
85 2 150.962 146.033 -5.55112e-17
86 2 50.6306 67.9114 -5.55112e-17
87 2 38.7999 75.8331 -5.55112e-17
88 1 80.7537 157.529 -5.55112e-17
89 2 199.804 105.242 -5.55112e-17
90 2 126.323 36.0283 -5.55112e-17
91 2 11.3078 182.39 -5.55112e-17
92 1 27.7201 215.407 -5.55112e-17
93 2 110.063 155.058 -5.55112e-17
94 2 112.298 144.591 -5.55112e-17
95 1 211.041 51.2318 -5.55112e-17
96 2 31.7752 54.6354 -5.55112e-17
97 2 4.15549 211.473 -5.55112e-17
98 2 35.8448 184.937 -5.55112e-17
99 1 105.314 9.91563 -5.55112e-17
100 2 158.945 66.0382 -5.55112e-17
101 1 184.595 109.734 -5.55112e-17
102 1 66.4449 164.489 -5.55112e-17
103 2 205.002 100.055 -5.55112e-17
104 2 104.322 73.373 -5.55112e-17
105 1 160.551 58.8036 -5.55112e-17
106 1 185.196 60.6714 -5.55112e-17
107 1 12.3519 106.854 -5.55112e-17
108 1 70.2717 210.148 -5.55112e-17
109 2 217.133 38.9578 -5.55112e-17
110 2 145.129 29.7038 -5.55112e-17
111 1 52.8809 92.3555 -5.55112e-17
112 2 8.18375 50.5654 -5.55112e-17
113 1 134.916 10.9515 -5.55112e-17
114 1 92.1089 86.8407 -5.55112e-17
115 2 32.2886 59.9013 -5.55112e-17
116 2 184.024 15.12 -5.55112e-17
117 1 163.271 110.642 -5.55112e-17
118 1 82.8596 94.3529 -5.55112e-17
119 2 99.053 139.587 -5.55112e-17
120 2 200.957 58.492 -5.55112e-17
121 1 205.52 138.473 -5.55112e-17
122 2 142.924 130.125 -5.55112e-17
123 2 7.15904 129.718 -5.55112e-17
124 1 160.895 200.046 -5.55112e-17
125 1 88.5043 193.422 -5.55112e-17
126 2 98.013 83.7947 -5.55112e-17
127 2 209.039 110.49 -5.55112e-17
128 1 121.83 105.28 -5.55112e-17
129 1 144.364 194.644 -5.55112e-17
130 2 119.995 61.4678 -5.55112e-17
131 1 133.923 60.1553 -5.55112e-17
132 1 139.765 22.1829 -5.55112e-17
133 1 181.325 105.554 -5.55112e-17
134 1 81.386 191.788 -5.55112e-17
135 2 177.661 60.9905 -5.55112e-17
136 1 190.831 118.735 -5.55112e-17
137 1 60.7636 7.70567 -5.55112e-17
138 2 156.377 159.141 -5.55112e-17
139 1 132.734 12.0733 -5.55112e-17
140 1 144.595 208.698 -5.55112e-17
141 1 50.9852 70.546 -5.55112e-17
142 1 213.311 191.017 -5.55112e-17
143 1 26.0959 26.2362 -5.55112e-17
144 1 46.3038 97.7844 -5.55112e-17
145 2 193.308 79.9352 -5.55112e-17
146 1 153.416 125.997 -5.55112e-17
147 2 16.8482 134.614 -5.55112e-17
148 1 24.7517 133.339 -5.55112e-17
149 1 147.608 190.318 -5.55112e-17
150 2 65.6999 52.6459 -5.55112e-17
151 1 132.582 138.479 -5.55112e-17
152 1 164.138 163.596 -5.55112e-17
153 2 124.028 130.726 -5.55112e-17
154 1 184.014 53.0184 -5.55112e-17
155 2 203.065 39.9642 -5.55112e-17
156 2 109.733 197.272 -5.55112e-17
157 2 165.982 28.7119 -5.55112e-17
158 2 27.4101 8.29367 -5.55112e-17
159 2 12.3838 158.878 -5.55112e-17
160 2 120.62 54.2588 -5.55112e-17
161 2 130.014 139.026 -5.55112e-17
162 1 23.8061 66.3675 -5.55112e-17
163 1 188.783 34.0716 -5.55112e-17
164 2 107.893 134.958 -5.55112e-17
165 1 48.826 72.3548 -5.55112e-17
166 2 5.91944 199.973 -5.55112e-17
167 1 107.1 168.382 -5.55112e-17
168 1 211.462 102.85 -5.55112e-17
169 2 98.5563 199.299 -5.55112e-17
170 1 66.5531 206.437 -5.55112e-17
171 1 137.569 92.3305 -5.55112e-17
172 1 199.497 199.29 -5.55112e-17
173 1 39.2994 203.853 -5.55112e-17
174 2 38.5607 173.339 -5.55112e-17
175 2 50.081 199.777 -5.55112e-17
176 1 119.645 151.683 -5.55112e-17
177 2 105.258 15.7816 -5.55112e-17
178 1 25.0244 7.70378 -5.55112e-17
179 2 106.744 197.753 -5.55112e-17
180 1 47.0925 76.6584 -5.55112e-17
181 1 16.1599 119.491 -5.55112e-17
182 1 113.948 86.5309 -5.55112e-17
183 1 63.8005 169.027 -5.55112e-17
184 2 157.508 25.5162 -5.55112e-17
185 2 189.999 78.5978 -5.55112e-17
186 2 74.5792 206.481 -5.55112e-17
187 2 159.078 201.881 -5.55112e-17
188 2 60.3801 28.7108 -5.55112e-17
189 1 191.5 57.5707 -5.55112e-17
190 1 196.349 55.2466 -5.55112e-17
191 2 35.2937 104.417 -5.55112e-17
192 2 90.5998 61.3077 -5.55112e-17
193 1 108.732 166.185 -5.55112e-17
194 1 26.5133 5.52228 -5.55112e-17
195 2 58.039 120.247 -5.55112e-17
196 1 218.968 218.671 -5.55112e-17
197 2 118.424 48.9966 -5.55112e-17
198 2 205.853 27.2152 -5.55112e-17
199 2 99.6706 170.866 -5.55112e-17
200 2 99.0788 31.2838 -5.55112e-17
201 2 103.361 121.178 -5.55112e-17
202 1 43.6763 34.1701 -5.55112e-17
203 1 18.2976 42.7536 -5.55112e-17
204 2 44.9471 78.7367 -5.55112e-17
205 2 183.032 181.791 -5.55112e-17
206 2 170.879 127.215 -5.55112e-17
207 1 75.1344 189.422 -5.55112e-17
208 2 134.948 54.6019 -5.55112e-17
209 2 33.1512 142.489 -5.55112e-17
210 1 182.361 112.939 -5.55112e-17
211 1 208.179 34.9901 -5.55112e-17
212 1 208.33 85.0714 -5.55112e-17
213 1 127.851 123.931 -5.55112e-17
214 2 11.8318 11.136 -5.55112e-17
215 1 5.68463 142.043 -5.55112e-17
216 1 55.0007 46.837 -5.55112e-17
217 1 164.311 61.6129 -5.55112e-17
218 2 201.524 120.941 -5.55112e-17
219 2 136.45 189.455 -5.55112e-17
220 1 121.139 1.8458 -5.55112e-17
221 2 83.1721 6.94717 -5.55112e-17
222 1 158.608 157.463 -5.55112e-17
223 1 45.6329 121.03 -5.55112e-17
224 2 145.874 71.1879 -5.55112e-17
225 2 168.899 163.832 -5.55112e-17
226 1 196.077 10.1143 -5.55112e-17
227 2 202.849 214.871 -5.55112e-17
228 2 117.973 63.8407 -5.55112e-17
229 1 47.7687 22.6673 -5.55112e-17
230 1 4.44072 56.4318 -5.55112e-17
231 2 137.972 160.709 -5.55112e-17
232 1 17.9058 212.61 -5.55112e-17
233 2 75.9869 196.023 -5.55112e-17
234 1 0.176581 59.5602 -5.55112e-17
235 1 150.501 106.296 -5.55112e-17
236 2 153.175 53.0667 -5.55112e-17
237 2 99.9832 204.248 -5.55112e-17
238 2 94.8855 140.504 -5.55112e-17
239 1 35.3503 217.187 -5.55112e-17
240 1 129.917 90.975 -5.55112e-17
241 2 3.65042 124.504 -5.55112e-17
242 1 193.885 28.155 -5.55112e-17
243 2 215.041 129.917 -5.55112e-17
244 2 35.9292 191.002 -5.55112e-17
245 1 174.011 21.16 -5.55112e-17
246 2 89.998 85.5758 -5.55112e-17
247 2 198.893 150.452 -5.55112e-17
248 1 38.0884 27.1442 -5.55112e-17
249 1 131.883 108.62 -5.55112e-17
250 1 134.676 28.1946 -5.55112e-17
251 2 102.048 43.4925 -5.55112e-17
252 1 111.136 157.257 -5.55112e-17
253 2 95.8213 97.374 -5.55112e-17
254 2 179.019 204.892 -5.55112e-17
255 2 121.271 51.0541 -5.55112e-17
256 1 2.99399 179.981 -5.55112e-17
257 2 32.5434 194.87 -5.55112e-17
258 1 210.789 81.3296 -5.55112e-17
259 2 160.747 141.458 -5.55112e-17
260 1 39.9766 192.813 -5.55112e-17
261 2 142.959 176.779 -5.55112e-17
262 2 187.12 110.102 -5.55112e-17
263 2 94.4225 173.28 -5.55112e-17
264 1 198.979 36.2226 -5.55112e-17
265 1 157.624 187.258 -5.55112e-17
266 1 99.069 196.744 -5.55112e-17
267 2 115.715 16.4668 -5.55112e-17
268 1 218.367 48.5179 -5.55112e-17
269 2 10.4882 113.504 -5.55112e-17
270 2 185.496 148.282 -5.55112e-17
271 2 187.88 94.8997 -5.55112e-17
272 1 59.4107 26.158 -5.55112e-17
273 1 70.5166 83.2973 -5.55112e-17
274 1 37.9732 196.488 -5.55112e-17
275 1 147.033 109.974 -5.55112e-17
276 1 198.917 74.6689 -5.55112e-17
277 1 100.308 38.1131 -5.55112e-17
278 2 60.9804 145.374 -5.55112e-17
279 2 160.363 86.6459 -5.55112e-17
280 1 117.431 211.23 -5.55112e-17
281 2 170.159 182.513 -5.55112e-17
282 2 75.307 126.793 -5.55112e-17
283 2 0.309087 150.66 -5.55112e-17
284 1 126.078 113.567 -5.55112e-17
285 1 73.1891 165.549 -5.55112e-17
286 2 30.0609 180.618 -5.55112e-17
287 2 93.5187 109.809 -5.55112e-17
288 1 104.305 123.58 -5.55112e-17
289 2 194.01 56.6112 -5.55112e-17
290 1 101.468 29.9641 -5.55112e-17
291 2 96.3069 186.127 -5.55112e-17
292 1 77.2162 125.061 -5.55112e-17
293 1 159.158 168.158 -5.55112e-17
294 1 29.6222 178.045 -5.55112e-17
295 2 47.1495 145.681 -5.55112e-17
296 1 196.8 176.422 -5.55112e-17
297 1 1.86986 18.0928 -5.55112e-17
298 2 30.8578 140.876 -5.55112e-17
299 1 177.395 55.9324 -5.55112e-17
300 2 190.153 192.56 -5.55112e-17
301 2 172.018 19.5991 -5.55112e-17
302 2 163.753 89.6708 -5.55112e-17
303 1 2.78289 151.13 -5.55112e-17
304 1 124.305 106.057 -5.55112e-17
305 1 91.9952 177.919 -5.55112e-17
306 2 84.1825 17.9949 -5.55112e-17
307 2 150.503 167.517 -5.55112e-17
308 2 142.306 22.5371 -5.55112e-17
309 1 70.675 72.0604 -5.55112e-17
310 1 190.491 189.895 -5.55112e-17
311 1 151.216 108.765 -5.55112e-17
312 2 135.017 13.5648 -5.55112e-17
313 2 155.263 17.6741 -5.55112e-17
314 1 184.194 58.4744 -5.55112e-17
315 2 56.3358 107.71 -5.55112e-17
316 1 96.0923 31.3069 -5.55112e-17
317 1 133.207 175.974 -5.55112e-17
318 1 216.592 135.273 -5.55112e-17
319 2 74.4489 201.015 -5.55112e-17
320 1 213.818 47.631 -5.55112e-17
321 1 52.2764 87.1464 -5.55112e-17
322 1 51.3815 148.529 -5.55112e-17
323 2 20.4237 139.009 -5.55112e-17
324 2 8.16432 95.3591 -5.55112e-17
325 2 216.168 13.5165 -5.55112e-17
326 1 184.706 0.726216 -5.55112e-17
327 1 35.6768 46.1615 -5.55112e-17
328 2 32.8619 191.764 -5.55112e-17
329 2 28.6019 83.3122 -5.55112e-17
330 2 153.469 38.8309 -5.55112e-17
331 2 187.714 67.5527 -5.55112e-17
332 2 121.362 114.751 -5.55112e-17
333 2 28.1106 151.207 -5.55112e-17
334 2 215.686 18.0231 -5.55112e-17
335 1 166.793 211.131 -5.55112e-17
336 2 28.1864 142.172 -5.55112e-17
337 2 40.7277 9.86988 -5.55112e-17
338 1 203.327 90.0913 -5.55112e-17
339 2 15.2708 152.487 -5.55112e-17
340 2 176.717 214.212 -5.55112e-17
341 2 101.445 60.4141 -5.55112e-17
342 2 173.336 166.33 -5.55112e-17
343 2 175.925 4.83001 -5.55112e-17
344 1 87.8556 105.715 -5.55112e-17
345 2 26.6253 213.013 -5.55112e-17
346 2 75.055 72.9847 -5.55112e-17
347 1 147.934 98.6098 -5.55112e-17
348 1 181.132 3.75268 -5.55112e-17
349 2 173.27 70.0629 -5.55112e-17
350 2 77.9126 179 -5.55112e-17
351 1 175.021 141.103 -5.55112e-17
352 1 212.691 163.472 -5.55112e-17
353 2 140.668 132.034 -5.55112e-17
354 2 191.264 175.945 -5.55112e-17
355 1 216.133 156.813 -5.55112e-17
356 2 115.114 1.85328 -5.55112e-17
357 1 126.745 192.448 -5.55112e-17
358 1 78.0206 25.6199 -5.55112e-17
359 1 35.1798 144.146 -5.55112e-17
360 1 51.4061 8.23021 -5.55112e-17
361 2 196.376 68.6661 -5.55112e-17
362 2 172.399 94.76 -5.55112e-17
363 1 78.9804 215.846 -5.55112e-17
364 2 216.897 46.438 -5.55112e-17
365 1 5.91788 164.036 -5.55112e-17
366 1 82.4211 173.038 -5.55112e-17
367 1 161.254 104.044 -5.55112e-17
368 1 21.0706 164.54 -5.55112e-17
369 2 81.1685 143.754 -5.55112e-17
370 1 6.59037 132.507 -5.55112e-17
371 2 71.2961 111.383 -5.55112e-17
372 1 87.9009 6.93731 -5.55112e-17
373 2 118.119 208.642 -5.55112e-17
374 2 177.247 101.57 -5.55112e-17
375 1 136.311 26.0925 -5.55112e-17
376 1 121.702 147.355 -5.55112e-17
377 2 94.9927 76.0621 -5.55112e-17
378 2 215.532 106.422 -5.55112e-17
379 2 169.596 187.19 -5.55112e-17
380 1 199.807 33.7077 -5.55112e-17
381 1 174.855 67.5913 -5.55112e-17
382 1 122.14 27.2269 -5.55112e-17
383 1 110.587 83.5124 -5.55112e-17
384 2 53.8774 101.041 -5.55112e-17
385 1 65.8699 149.057 -5.55112e-17
386 2 179.9 175.412 -5.55112e-17
387 1 34.5859 107.105 -5.55112e-17
388 1 143.785 164.015 -5.55112e-17
389 2 216.247 120.874 -5.55112e-17
390 1 104.94 65.9503 -5.55112e-17
391 1 203.013 217.344 -5.55112e-17
392 2 4.2413 100.179 -5.55112e-17
393 2 192.548 173.143 -5.55112e-17
394 1 36.6917 204.073 -5.55112e-17
395 1 19.4409 214.752 -5.55112e-17
396 2 75.3413 88.3373 -5.55112e-17
397 1 67.4574 42.0539 -5.55112e-17
398 2 165.843 110.598 -5.55112e-17
399 2 197.073 106.469 -5.55112e-17
400 2 123.581 69.0952 -5.55112e-17
401 2 84.2707 190.849 -5.55112e-17
402 1 84.1529 43.023 -5.55112e-17
403 1 69.5313 116.384 -5.55112e-17
404 2 113.088 14.1008 -5.55112e-17
405 1 49.5335 196.8 -5.55112e-17
406 2 216.895 95.3469 -5.55112e-17
407 1 123.88 78.772 -5.55112e-17
408 1 130.266 29.4591 -5.55112e-17
409 2 214.796 115.628 -5.55112e-17
410 2 70.7756 159.339 -5.55112e-17
411 1 137.008 97.1366 -5.55112e-17
412 1 164.252 6.7253 -5.55112e-17
413 1 34.7048 86.0076 -5.55112e-17
414 2 192.967 202.248 -5.55112e-17
415 1 107.367 126.81 -5.55112e-17
416 1 175.788 52.0206 -5.55112e-17
417 2 107.494 129.405 -5.55112e-17
418 2 34.8474 179.72 -5.55112e-17
419 2 195.095 91.76 -5.55112e-17
420 2 108.728 44.7196 -5.55112e-17
421 1 70.1673 31.1806 -5.55112e-17
422 1 34.3408 58.3475 -5.55112e-17
423 2 116.52 125.4 -5.55112e-17
424 2 39.2904 24.7704 -5.55112e-17
425 2 117.202 150.635 -5.55112e-17
426 1 185.949 96.6558 -5.55112e-17
427 2 74.9598 60.8946 -5.55112e-17
428 1 29.288 175.01 -5.55112e-17
429 2 131.119 150.173 -5.55112e-17
430 2 111.776 104.723 -5.55112e-17
431 1 13.0551 8.79233 -5.55112e-17
432 2 173.559 3.07467 -5.55112e-17
433 1 186.184 198.434 -5.55112e-17
434 1 20.6364 205.109 -5.55112e-17
435 1 149.766 85.2028 -5.55112e-17
436 2 85.4916 199.2 -5.55112e-17
437 2 180.885 82.7392 -5.55112e-17
438 2 194.076 177.143 -5.55112e-17
439 2 92.8054 10.5446 -5.55112e-17
440 2 201.025 91.7863 -5.55112e-17
441 1 131.007 167.339 -5.55112e-17
442 1 37.8046 104.491 -5.55112e-17
443 2 79.2117 81.8885 -5.55112e-17
444 1 204.66 104.916 -5.55112e-17
445 1 169.58 132.958 -5.55112e-17
446 2 183.173 150.301 -5.55112e-17
447 2 39.8303 40.155 -5.55112e-17
448 2 205.959 175.531 -5.55112e-17
449 1 41.5393 177.252 -5.55112e-17
450 1 10.8715 126.416 -5.55112e-17
451 1 54.3382 209.381 -5.55112e-17
452 2 208.516 60.4245 -5.55112e-17
453 1 216.564 149.74 -5.55112e-17
454 1 2.9577 68.6414 -5.55112e-17
455 2 81.1305 131.198 -5.55112e-17
456 1 85.1064 1.95581 -5.55112e-17
457 2 140.609 145.176 -5.55112e-17
458 2 155.67 135.566 -5.55112e-17
459 2 133.603 51.6462 -5.55112e-17
460 1 197.102 169.552 -5.55112e-17
461 1 111.644 128.828 -5.55112e-17
462 1 104.49 196.31 -5.55112e-17
463 2 110.473 218.713 -5.55112e-17
464 2 13.5952 77.4402 -5.55112e-17
465 1 123.937 16.3817 -5.55112e-17
466 2 150.683 126.565 -5.55112e-17
467 2 66.0361 133.234 -5.55112e-17
468 2 123.998 125.672 -5.55112e-17
469 2 57.9213 71.3263 -5.55112e-17
470 2 208.979 154.314 -5.55112e-17
471 2 211.88 211.69 -5.55112e-17
472 2 111.137 37.0078 -5.55112e-17
473 2 197.707 214.506 -5.55112e-17
474 2 85.0629 146.94 -5.55112e-17
475 1 164.102 182.893 -5.55112e-17
476 2 174.907 34.5092 -5.55112e-17
477 1 208.529 218.022 -5.55112e-17
478 1 46.1098 188.789 -5.55112e-17
479 2 0.542866 197.889 -5.55112e-17
480 1 82.5834 61.8141 -5.55112e-17
481 1 2.39755 209.429 -5.55112e-17
482 2 153.091 176.576 -5.55112e-17
483 1 134.523 209.27 -5.55112e-17
484 1 66.2135 135.848 -5.55112e-17
485 2 13.0541 173.735 -5.55112e-17
486 1 132.77 72.8254 -5.55112e-17
487 1 13.1225 202.285 -5.55112e-17
488 1 49.8534 83.8144 -5.55112e-17
489 1 70.3019 108.808 -5.55112e-17
490 1 164.535 73.3095 -5.55112e-17
491 1 163.173 75.4342 -5.55112e-17
492 2 208.845 15.4023 -5.55112e-17
493 1 94.5062 203.176 -5.55112e-17
494 2 77.8238 66.5455 -5.55112e-17
495 1 150.182 92.259 -5.55112e-17
496 1 52.0289 123.867 -5.55112e-17
497 1 136.953 110.226 -5.55112e-17
498 2 145.383 39.2332 -5.55112e-17
499 2 177.646 118.627 -5.55112e-17
500 2 57.2218 32.4414 -5.55112e-17
501 2 15.1295 139.687 -5.55112e-17
502 2 190.824 126.505 -5.55112e-17
503 2 57.3303 63.5226 -5.55112e-17
504 2 98.001 50.3576 -5.55112e-17
505 2 112.409 214.135 -5.55112e-17
506 1 206.994 6.11237 -5.55112e-17
507 2 49.8407 182.364 -5.55112e-17
508 1 140.575 59.6612 -5.55112e-17
509 1 209.211 47.011 -5.55112e-17
510 1 195.389 104.117 -5.55112e-17
511 2 108.321 179.484 -5.55112e-17
512 1 10.8069 42.3072 -5.55112e-17
513 2 87.8375 183.437 -5.55112e-17
514 2 15.0703 87.3973 -5.55112e-17
515 1 60.259 98.5303 -5.55112e-17
516 2 100.98 74.2808 -5.55112e-17
517 1 32.5272 147.589 -5.55112e-17
518 2 10.0332 13.5852 -5.55112e-17
519 1 125.383 92.1729 -5.55112e-17
520 2 209.106 93.3212 -5.55112e-17
521 2 130.326 39.6386 -5.55112e-17
522 1 187.014 7.17413 -5.55112e-17
523 1 127.63 99.4747 -5.55112e-17
524 2 174.998 18.758 -5.55112e-17
525 2 185.583 45.9872 -5.55112e-17
526 2 108.118 16.7935 -5.55112e-17
527 1 170.443 25.0787 -5.55112e-17
528 1 212.554 202.089 -5.55112e-17
529 2 104.51 176.051 -5.55112e-17
530 2 18.3704 88.1903 -5.55112e-17
531 2 184.658 171.44 -5.55112e-17
532 1 81.2073 4.98497 -5.55112e-17
533 2 23.7028 158.11 -5.55112e-17
534 1 23.2977 168.043 -5.55112e-17
535 1 170.084 206.852 -5.55112e-17
536 2 18.6647 169.792 -5.55112e-17
537 1 142.375 29.455 -5.55112e-17
538 1 68.4551 158.023 -5.55112e-17
539 2 81.0791 162.96 -5.55112e-17
540 1 35.3286 182.256 -5.55112e-17
541 1 104.664 128.851 -5.55112e-17
542 1 58.3941 126.814 -5.55112e-17
543 2 120.666 168.895 -5.55112e-17
544 1 217.48 211.718 -5.55112e-17
545 1 174.799 72.1387 -5.55112e-17
546 2 186.649 9.62434 -5.55112e-17
547 1 12.5281 70.7393 -5.55112e-17
548 1 29.1191 5.79867 -5.55112e-17
549 2 35.4476 152.53 -5.55112e-17
550 2 164.269 193.395 -5.55112e-17
551 2 38.7413 7.46171 -5.55112e-17
552 1 31.6612 52.142 -5.55112e-17
553 2 206.911 196.557 -5.55112e-17
554 2 144.316 34.3447 -5.55112e-17
555 2 178.156 134.186 -5.55112e-17
556 1 177.208 211.406 -5.55112e-17
557 1 211.084 53.7497 -5.55112e-17
558 1 60.3091 142.701 -5.55112e-17
559 2 106.21 91.5456 -5.55112e-17
560 2 57.3249 89.3615 -5.55112e-17
561 2 110.699 181.438 -5.55112e-17
562 2 98.1403 65.0422 -5.55112e-17
563 1 73.1895 168.324 -5.55112e-17
564 2 103.442 78.7015 -5.55112e-17
565 2 33.5202 65.292 -5.55112e-17
566 2 64.0813 60.436 -5.55112e-17
567 1 95.2884 11.9281 -5.55112e-17
568 1 22.4682 77.9187 -5.55112e-17
569 2 141.621 194.581 -5.55112e-17
570 2 11.5373 21.1563 -5.55112e-17
571 2 4.89652 61.6661 -5.55112e-17
572 1 115.239 107.792 -5.55112e-17
573 2 37.8116 89.6233 -5.55112e-17
574 2 178.926 170.548 -5.55112e-17
575 1 196.004 206.774 -5.55112e-17
576 1 25.5587 67.9125 -5.55112e-17
577 1 127.716 74.9927 -5.55112e-17
578 1 183.976 115.017 -5.55112e-17
579 2 182.386 46.8072 -5.55112e-17
580 1 109.03 103.781 -5.55112e-17
581 1 91.6005 146.618 -5.55112e-17
582 2 125.616 101.207 -5.55112e-17
583 2 103.509 83.8518 -5.55112e-17
584 2 107.228 151.527 -5.55112e-17
585 1 182.326 103.277 -5.55112e-17
586 1 143.508 80.1729 -5.55112e-17
587 1 158.121 111.992 -5.55112e-17
588 2 64.2597 108.686 -5.55112e-17
589 1 210.711 58.9709 -5.55112e-17
590 2 181.699 58.1084 -5.55112e-17
591 2 178.926 16.2608 -5.55112e-17
592 1 204.398 128.54 -5.55112e-17
593 1 127.232 90.3131 -5.55112e-17
594 1 5.43556 69.9484 -5.55112e-17
595 1 33.2637 62.6547 -5.55112e-17
596 2 107.128 71.1597 -5.55112e-17
597 2 63.4891 105.64 -5.55112e-17
598 2 135.917 87.6863 -5.55112e-17
599 2 96.7119 166.309 -5.55112e-17
600 2 48.9185 99.0035 -5.55112e-17
601 1 146.075 107.826 -5.55112e-17
602 1 173.536 52.1138 -5.55112e-17
603 2 216.643 159.587 -5.55112e-17
604 1 46.2525 179.53 -5.55112e-17
605 2 140.324 100.752 -5.55112e-17
606 2 150.393 99.2919 -5.55112e-17
607 2 47.9956 169.573 -5.55112e-17
608 2 128.076 31.0554 -5.55112e-17
609 1 77.7079 89.5869 -5.55112e-17
610 2 106.439 200.68 -5.55112e-17
611 1 1.36321 165.198 -5.55112e-17
612 1 207.46 117.147 -5.55112e-17
613 2 213.669 156.396 -5.55112e-17
614 1 202.366 30.3147 -5.55112e-17
615 1 152.302 104.407 -5.55112e-17
616 2 145.941 177.738 -5.55112e-17
617 1 168.487 0.95457 -5.55112e-17
618 1 136.847 216.611 -5.55112e-17
619 1 164.355 160.708 -5.55112e-17
620 2 42.6612 88.8602 -5.55112e-17
621 2 203.769 76.7702 -5.55112e-17
622 2 145.104 154.191 -5.55112e-17
623 2 108.491 147.41 -5.55112e-17
624 1 106.871 177.227 -5.55112e-17
625 2 208.786 79.7191 -5.55112e-17
626 1 210.999 189.963 -5.55112e-17
627 2 194.996 192.807 -5.55112e-17
628 1 116.644 156.366 -5.55112e-17
629 1 30.4802 41.1199 -5.55112e-17
630 2 133.392 214.098 -5.55112e-17
631 2 144.705 115.352 -5.55112e-17
632 2 208.684 19.9916 -5.55112e-17
633 2 60.7365 131.659 -5.55112e-17
634 2 191.157 67.4714 -5.55112e-17
635 2 80.113 72.4164 -5.55112e-17
636 1 88.0892 131.068 -5.55112e-17
637 1 217.348 152.372 -5.55112e-17
638 1 116.558 69.3612 -5.55112e-17
639 2 200.467 65.4107 -5.55112e-17
640 2 149.72 78.1471 -5.55112e-17
641 1 199.995 96.7251 -5.55112e-17
642 2 161.649 35.4297 -5.55112e-17
643 1 165.29 58.0019 -5.55112e-17
644 2 139.446 155.044 -5.55112e-17
645 2 5.46631 75.0926 -5.55112e-17
646 1 169.667 142.554 -5.55112e-17
647 2 128.896 148.38 -5.55112e-17
648 2 190.21 211.367 -5.55112e-17
649 1 63.6916 145.435 -5.55112e-17
650 1 56.6322 153.245 -5.55112e-17
651 1 112.201 131.421 -5.55112e-17
652 2 8.55597 213.966 -5.55112e-17
653 2 195.236 45.1833 -5.55112e-17
654 1 208.547 164.184 -5.55112e-17
655 1 63.5231 47.4879 -5.55112e-17
656 1 198.755 10.3145 -5.55112e-17
657 1 125.027 120.622 -5.55112e-17
658 2 165.708 105.409 -5.55112e-17
659 2 101.354 137.775 -5.55112e-17
660 1 24.5583 12.0637 -5.55112e-17
661 2 15.7615 36.7572 -5.55112e-17
662 2 136.001 117.04 -5.55112e-17
663 1 163.467 113.054 -5.55112e-17
664 1 79.6976 138.368 -5.55112e-17
665 1 135.374 144.269 -5.55112e-17
666 1 203.017 184.72 -5.55112e-17
667 1 1.08761 116.707 -5.55112e-17
668 1 134.322 157.026 -5.55112e-17
669 1 106.968 161.002 -5.55112e-17
670 2 212.319 160.646 -5.55112e-17
671 1 3.33199 15.8732 -5.55112e-17
672 1 193.986 141.354 -5.55112e-17
673 2 47.1929 84.7389 -5.55112e-17
674 2 182.347 205.311 -5.55112e-17
675 2 152.559 2.13813 -5.55112e-17
676 1 180.573 159.649 -5.55112e-17
677 2 52.8896 53.144 -5.55112e-17
678 1 86.6844 113.638 -5.55112e-17
679 1 86.5827 65.0206 -5.55112e-17
680 2 72.0491 13.7035 -5.55112e-17
681 1 5.04287 8.72018 -5.55112e-17
682 1 141.726 171.713 -5.55112e-17
683 2 96.0324 123.532 -5.55112e-17
684 1 23.1945 180.454 -5.55112e-17
685 1 84.1491 207.004 -5.55112e-17
686 1 143.063 159.57 -5.55112e-17
687 1 107.4 53.0646 -5.55112e-17
688 1 152.087 97.1635 -5.55112e-17
689 2 11.071 139.563 -5.55112e-17
690 1 48.0661 120.97 -5.55112e-17
691 2 64.8475 115.02 -5.55112e-17
692 2 180.737 178.612 -5.55112e-17
693 1 161.56 96.4197 -5.55112e-17
694 2 147.404 149.716 -5.55112e-17
695 2 188.266 36.6134 -5.55112e-17
696 2 31.637 82.2447 -5.55112e-17
697 1 104.011 36.1464 -5.55112e-17
698 2 41.2588 18.1993 -5.55112e-17
699 1 57.3105 202.75 -5.55112e-17
700 2 18.3206 126.371 -5.55112e-17
701 2 30.7686 63.9277 -5.55112e-17
702 1 160.639 10.0374 -5.55112e-17
703 1 195.792 60.376 -5.55112e-17
704 1 159.927 121.746 -5.55112e-17
705 1 43.2612 120.679 -5.55112e-17
706 1 75.4699 161.855 -5.55112e-17
707 1 182.131 66.8547 -5.55112e-17
708 2 195.453 101.287 -5.55112e-17
709 1 54.7246 160.235 -5.55112e-17
710 2 91.9651 16.5959 -5.55112e-17
711 2 0.0637596 141.248 -5.55112e-17
712 1 84.6046 213.614 -5.55112e-17
713 1 5.28065 152.027 -5.55112e-17
714 2 145.351 147.527 -5.55112e-17
715 2 133.267 87.0648 -5.55112e-17
716 1 88.6637 59.8328 -5.55112e-17
717 1 14.6734 60.9696 -5.55112e-17
718 2 78.6786 99.8393 -5.55112e-17
719 1 69.0901 202.867 -5.55112e-17
720 2 52.0518 197.099 -5.55112e-17
721 2 43.8635 212.986 -5.55112e-17
722 2 65.6817 138.274 -5.55112e-17
723 2 15.9352 165.761 -5.55112e-17
724 2 202.548 106.945 -5.55112e-17
725 2 21.7465 49.94 -5.55112e-17
726 2 178.053 123.717 -5.55112e-17
727 2 35.3039 109.52 -5.55112e-17
728 1 176.715 76.9323 -5.55112e-17
729 2 167.358 131.82 -5.55112e-17
730 2 175.036 94.452 -5.55112e-17
731 1 9.67865 23.0802 -5.55112e-17
732 2 98.107 86.955 -5.55112e-17
733 2 148.217 146.817 -5.55112e-17
734 2 59.4742 192.061 -5.55112e-17
735 2 149.11 71.9331 -5.55112e-17
736 1 182.179 176.317 -5.55112e-17
737 2 48.8869 39.5284 -5.55112e-17
738 2 71.625 208.023 -5.55112e-17
739 2 186.197 130.929 -5.55112e-17
740 2 40.2439 115.733 -5.55112e-17
741 2 200.911 113.481 -5.55112e-17
742 1 71.6994 98.8046 -5.55112e-17
743 2 78.3707 76.0316 -5.55112e-17
744 1 146.713 50.1534 -5.55112e-17
745 2 15.5467 75.297 -5.55112e-17
746 1 218.957 121.323 -5.55112e-17
747 1 98.3101 163.759 -5.55112e-17
748 2 70.3689 198.037 -5.55112e-17
749 1 213.767 165.982 -5.55112e-17
750 1 139.699 147.952 -5.55112e-17
751 1 143.365 88.9934 -5.55112e-17
752 2 195 167.933 -5.55112e-17
753 1 37.7297 180.385 -5.55112e-17
754 2 65.6997 81.0033 -5.55112e-17
755 1 6.32459 80.5104 -5.55112e-17
756 2 178.644 58.2718 -5.55112e-17
757 1 110.425 15.4349 -5.55112e-17
758 2 99.431 28.1739 -5.55112e-17
759 1 95.7896 133.665 -5.55112e-17
760 1 171.113 61.6634 -5.55112e-17
761 2 213.272 100.944 -5.55112e-17
762 1 178.732 105.862 -5.55112e-17
763 2 6.32272 157.051 -5.55112e-17
764 2 43.4949 188.607 -5.55112e-17
765 1 22.0673 159.989 -5.55112e-17
766 2 99.8578 47.8664 -5.55112e-17
767 2 206.405 148.4 -5.55112e-17
768 2 71.7133 62.6013 -5.55112e-17
769 2 188.206 98.4335 -5.55112e-17
770 1 133.973 18.4041 -5.55112e-17
771 1 64.3217 63.0988 -5.55112e-17
772 1 129.139 0.572203 -5.55112e-17
773 2 166.614 172.336 -5.55112e-17
774 1 87.9555 87.3526 -5.55112e-17
775 1 102.615 76.2265 -5.55112e-17
776 2 192.79 103.145 -5.55112e-17
777 2 42.2873 79.8716 -5.55112e-17
778 1 83.4308 12.7961 -5.55112e-17
779 1 47.6186 61.5984 -5.55112e-17
780 2 83.4421 49.822 -5.55112e-17
781 1 25.8643 171.956 -5.55112e-17
782 2 123.24 170.184 -5.55112e-17
783 1 74.0875 63.3344 -5.55112e-17
784 2 96.7429 110.569 -5.55112e-17
785 1 204.181 81.9989 -5.55112e-17
786 1 41.3398 7.27974 -5.55112e-17
787 2 38.1415 208.537 -5.55112e-17
788 2 164.973 180.745 -5.55112e-17
789 2 18.7423 147.284 -5.55112e-17
790 2 77.4557 7.9929 -5.55112e-17
791 2 186.424 54.1424 -5.55112e-17
792 1 213.423 132.373 -5.55112e-17
793 1 97.0905 172.087 -5.55112e-17
794 2 209.609 6.54867 -5.55112e-17
795 2 10.4932 191.994 -5.55112e-17
796 1 69.3924 215.271 -5.55112e-17
797 1 46.2666 32.5116 -5.55112e-17
798 1 213.248 55.3959 -5.55112e-17
799 2 105.701 155.974 -5.55112e-17
800 1 56.6544 37.1855 -5.55112e-17
801 2 68.4311 84.6947 -5.55112e-17
802 1 91.0634 216.792 -5.55112e-17
803 1 143.22 25.0746 -5.55112e-17
804 1 210.403 124.693 -5.55112e-17
805 2 183.581 117.633 -5.55112e-17
806 2 178.487 157.863 -5.55112e-17
807 2 208.153 29.2263 -5.55112e-17
808 2 76.2133 144.846 -5.55112e-17
809 1 175.972 63.0228 -5.55112e-17
810 2 23.8581 173.63 -5.55112e-17
811 2 180.059 55.7965 -5.55112e-17
812 1 121.879 184.932 -5.55112e-17
813 1 21.8514 95.5608 -5.55112e-17
814 1 2.74276 204.953 -5.55112e-17
815 1 146.131 32.2407 -5.55112e-17
816 1 206.533 51.0024 -5.55112e-17
817 2 63.0081 71.0096 -5.55112e-17
818 2 29.8517 122.992 -5.55112e-17
819 2 210.654 67.758 -5.55112e-17
820 1 9.22706 58.705 -5.55112e-17
821 1 65.0365 58.0901 -5.55112e-17
822 2 131.436 34.5776 -5.55112e-17
823 1 183.432 90.0736 -5.55112e-17
824 1 175.404 90.0179 -5.55112e-17
825 1 160.136 190.94 -5.55112e-17
826 2 178.284 81.8494 -5.55112e-17
827 2 102.539 27.6914 -5.55112e-17
828 1 50.4734 91.4819 -5.55112e-17
829 2 127.912 92.8635 -5.55112e-17
830 1 3.89096 156.312 -5.55112e-17
831 2 182.987 217.673 -5.55112e-17
832 2 26.7612 52.3129 -5.55112e-17
833 2 96.1982 41.9136 -5.55112e-17
834 1 70.9827 164.44 -5.55112e-17
835 1 184.925 140.722 -5.55112e-17
836 1 153.073 69.8485 -5.55112e-17
837 2 167.944 92.147 -5.55112e-17
838 2 92.2691 26.8051 -5.55112e-17
839 1 39.0723 32.1588 -5.55112e-17
840 2 13.8549 117.282 -5.55112e-17
841 2 201.372 10.5013 -5.55112e-17
842 1 174.349 156.915 -5.55112e-17
843 1 204.838 29.7074 -5.55112e-17
844 2 8.44049 25.379 -5.55112e-17
845 1 47.0732 151.096 -5.55112e-17
846 2 127.556 211.055 -5.55112e-17
847 1 88.4085 143.356 -5.55112e-17
848 2 112.989 9.13784 -5.55112e-17
849 1 24.8607 33.2803 -5.55112e-17
850 2 59.8532 67.2737 -5.55112e-17
851 2 215.985 30.5556 -5.55112e-17
852 1 137.536 182.948 -5.55112e-17
853 1 186.181 104.962 -5.55112e-17
854 2 104.029 144.953 -5.55112e-17
855 2 165.989 121.124 -5.55112e-17
856 1 77.6371 160.398 -5.55112e-17