ITEM: TIMESTEP
0
ITEM: NUMBER OF ATOMS
7200
ITEM: BOX BOUNDS xy xz yz pp pp pp
0.0000000000000000e+00 2.1900000000000000e+02 0.0000000000000000e+00
0.0000000000000000e+00 2.1900000000000000e+02 0.0000000000000000e+00
-3.6499999999999999e-01 3.6499999999999999e-01 0.0000000000000000e+00
ITEM: ATOMS id type x y z
1 1 143.924 102.553 -5.55112e-17
2 2 101.979 160.399 -5.55112e-17
3 2 29.6125 101.876 -5.55112e-17
4 1 50.7641 57.7373 -5.55112e-17
5 1 168.538 39.0872 -5.55112e-17
6 1 122.193 104.755 -5.55112e-17
7 2 39.1044 124.111 -5.55112e-17
8 2 80.4093 151.781 -5.55112e-17
9 1 76.6096 83.1722 -5.55112e-17
10 2 107.554 98.6948 -5.55112e-17
11 2 214.121 156.498 -5.55112e-17
12 1 175.594 170.437 -5.55112e-17
13 2 89.5832 2.37458 -5.55112e-17
14 1 142.479 68.89 -5.55112e-17
15 2 137.812 195.515 -5.55112e-17
16 2 194.229 199.961 -5.55112e-17
17 1 189.941 54.6683 -5.55112e-17
18 2 7.42787 22.7315 -5.55112e-17
19 1 88.7614 197.773 -5.55112e-17
20 1 184.515 159.404 -5.55112e-17
21 1 39.2884 77.3721 -5.55112e-17
22 2 20.1393 151.857 -5.55112e-17
23 2 124.573 8.5965 -5.55112e-17
24 2 158.633 73.9943 -5.55112e-17
25 2 9.5817 135.658 -5.55112e-17
26 2 93.4776 31.5971 -5.55112e-17
27 1 55.8055 29.6073 -5.55112e-17
28 2 105.658 204.933 -5.55112e-17
29 2 144.264 215.404 -5.55112e-17
30 2 127.388 215.748 -5.55112e-17
31 2 178.033 65.1768 -5.55112e-17
32 1 147.717 5.94065 -5.55112e-17
33 2 216.293 104 -5.55112e-17
34 2 25.1113 213.27 -5.55112e-17
35 2 38.0397 94.8839 -5.55112e-17
36 1 85.9306 179.03 -5.55112e-17
37 1 62.372 44.0897 -5.55112e-17
38 2 139.57 209.141 -5.55112e-17
39 1 76.4617 38.51 -5.55112e-17
40 2 110.445 106.141 -5.55112e-17
41 1 23.3735 26.5674 -5.55112e-17
42 1 54.1912 201.872 -5.55112e-17
43 1 63.9064 94.3175 -5.55112e-17
44 1 2.24458 87.1892 -5.55112e-17
45 2 32.1338 155.026 -5.55112e-17
46 1 25.6999 25.3804 -5.55112e-17
47 2 56.7909 172.069 -5.55112e-17
48 2 188.098 42.0453 -5.55112e-17
49 1 81.3567 168.501 -5.55112e-17
50 2 55.6294 96.7394 -5.55112e-17
51 1 48.514 59.6404 -5.55112e-17
52 1 116.308 172.142 -5.55112e-17
53 2 33.8537 83.1925 -5.55112e-17
54 1 81.3208 132.777 -5.55112e-17
55 2 67.4125 4.49586 -5.55112e-17
56 1 101.83 51.743 -5.55112e-17
57 2 135.216 163.203 -5.55112e-17
58 1 218.083 11.9237 -5.55112e-17
59 1 111.481 139.914 -5.55112e-17
60 2 2.32447 125.42 -5.55112e-17
61 1 190.134 98.365 -5.55112e-17
62 1 184.01 99.317 -5.55112e-17
63 2 108.438 203.896 -5.55112e-17
64 1 137.592 182.724 -5.55112e-17
65 2 155.79 128.561 -5.55112e-17
66 2 197.389 112.085 -5.55112e-17
67 2 23.2212 190.763 -5.55112e-17
68 1 179.006 124.692 -5.55112e-17
69 2 200.218 134.227 -5.55112e-17
70 1 81.4561 117.93 -5.55112e-17
71 1 1.81441 172.748 -5.55112e-17
72 2 51.1016 40.0252 -5.55112e-17
73 2 198.351 212.372 -5.55112e-17
74 2 169.069 128.065 -5.55112e-17
75 1 109.538 168.815 -5.55112e-17
76 2 50.7915 61.1526 -5.55112e-17
77 2 166.599 158.987 -5.55112e-17
78 1 176.735 148.21 -5.55112e-17
79 2 190.12 67.6964 -5.55112e-17
80 1 187.729 134.184 -5.55112e-17
81 1 218.472 96.8967 -5.55112e-17
82 1 89.7627 177.536 -5.55112e-17
83 1 162.556 109.26 -5.55112e-17
84 2 123.123 118.618 -5.55112e-17
85 2 135.979 184.97 -5.55112e-17
86 2 180.677 56.4422 -5.55112e-17
87 2 144.865 13.4225 -5.55112e-17
88 1 67.8296 182.202 -5.55112e-17
89 2 169.858 109.105 -5.55112e-17
90 2 94.9488 7.78285 -5.55112e-17
91 2 101.73 213.863 -5.55112e-17
92 1 151.144 125.014 -5.55112e-17
93 2 15.4533 11.1501 -5.55112e-17
94 2 122.151 161.705 -5.55112e-17
95 1 209.694 71.7017 -5.55112e-17
96 2 180.608 184.653 -5.55112e-17
97 2 76.6814 200.519 -5.55112e-17
98 2 93.6399 120.182 -5.55112e-17
99 1 1.55592 11.8333 -5.55112e-17
100 2 218.497 136.237 -5.55112e-17
101 1 154.148 184.413 -5.55112e-17
102 1 206.681 163.68 -5.55112e-17
103 2 119.717 179.494 -5.55112e-17
104 2 189.847 189.534 -5.55112e-17
105 1 106.31 166.486 -5.55112e-17
106 1 99.1261 214.435 -5.55112e-17
107 1 173.03 134.418 -5.55112e-17
108 1 30.1184 22.5233 -5.55112e-17
109 2 31.5184 126.589 -5.55112e-17
110 2 66.8748 106.04 -5.55112e-17
111 1 159.191 162.756 -5.55112e-17
112 2 158.628 77.222 -5.55112e-17
113 1 184.098 176.171 -5.55112e-17
114 1 216.851 39.5027 -5.55112e-17
115 2 217.651 42.1181 -5.55112e-17
116 2 175.62 66.5548 -5.55112e-17
117 1 9.10711 218.844 -5.55112e-17
118 1 0.969186 162.967 -5.55112e-17
119 2 137.256 216.744 -5.55112e-17
120 2 33.6327 136.22 -5.55112e-17
121 1 3.40011 25.5628 -5.55112e-17
122 2 43.9017 50.5741 -5.55112e-17
123 2 51.5606 74.9171 -5.55112e-17
124 1 133.43 105.669 -5.55112e-17
125 1 212.547 209.661 -5.55112e-17
126 2 19.7311 172.555 -5.55112e-17
127 2 67.7932 117.404 -5.55112e-17
128 1 51.9993 16.1768 -5.55112e-17
129 1 52.7359 66.8832 -5.55112e-17
130 2 89.1387 97.0684 -5.55112e-17
131 1 162.68 214.94 -5.55112e-17
132 1 209.02 52.0679 -5.55112e-17
133 1 39.0467 59.3774 -5.55112e-17
134 1 74.8404 212.702 -5.55112e-17
135 2 166.288 122.751 -5.55112e-17
136 1 198.369 18.9166 -5.55112e-17
137 1 147.581 21.6072 -5.55112e-17
138 2 5.12011 39.1817 -5.55112e-17
139 1 100.767 65.0971 -5.55112e-17
140 1 87.4526 68.6184 -5.55112e-17
141 1 37.9483 16.7205 -5.55112e-17
142 1 56.2446 186.053 -5.55112e-17
143 1 109.107 136.586 -5.55112e-17
144 1 42.7816 144.279 -5.55112e-17
145 2 17.1494 109.528 -5.55112e-17
146 1 103.044 19.9861 -5.55112e-17
147 2 122.339 50.442 -5.55112e-17
148 1 147.771 197.231 -5.55112e-17
149 1 194.065 96.9914 -5.55112e-17
150 2 91.2905 196.872 -5.55112e-17
151 1 120.734 207.277 -5.55112e-17
152 1 168.817 206.005 -5.55112e-17
153 2 86.5006 146.752 -5.55112e-17
154 1 218.744 164.626 -5.55112e-17
155 2 23.4084 78.3945 -5.55112e-17
156 2 22.073 138.704 -5.55112e-17
157 2 188.653 137.82 -5.55112e-17
158 2 146.655 97.6017 -5.55112e-17
159 2 80.4518 14.8476 -5.55112e-17
160 2 31.6667 194.666 -5.55112e-17
161 2 29.0894 68.4971 -5.55112e-17
162 1 48.0646 188.801 -5.55112e-17
163 1 61.2276 37.5224 -5.55112e-17
164 2 42.6336 138.817 -5.55112e-17
165 1 167.594 167.795 -5.55112e-17
166 2 100.996 121.422 -5.55112e-17
167 1 170.469 77.539 -5.55112e-17
168 1 68.797 48.6059 -5.55112e-17
169 2 149.078 165.571 -5.55112e-17
170 1 136.567 173.551 -5.55112e-17
171 1 172.668 130.608 -5.55112e-17
172 1 118.59 173.261 -5.55112e-17
173 1 124.681 95.7032 -5.55112e-17
174 2 164.233 186.423 -5.55112e-17
175 2 132.001 56.8728 -5.55112e-17
176 1 148.987 73.6783 -5.55112e-17
177 2 36.2244 141.949 -5.55112e-17
178 1 184.599 147.011 -5.55112e-17
179 2 104.509 92.6945 -5.55112e-17
180 1 134.909 134.892 -5.55112e-17
181 1 13.8352 55.264 -5.55112e-17
182 1 191.654 78.49 -5.55112e-17
183 1 80.7999 17.848 -5.55112e-17
184 2 41.0441 85.5348 -5.55112e-17
185 2 198.522 38.8982 -5.55112e-17
186 2 177.434 145.481 -5.55112e-17
187 2 16.163 193.922 -5.55112e-17
188 2 128.597 187.366 -5.55112e-17
189 1 216.517 213.059 -5.55112e-17
190 1 194.006 94.3829 -5.55112e-17
191 2 15.4533 166.554 -5.55112e-17
192 2 69.5781 201.815 -5.55112e-17
193 1 10.2024 194.648 -5.55112e-17
194 1 106.847 137.267 -5.55112e-17
195 2 13.8974 93.1454 -5.55112e-17
196 1 109.512 188.674 -5.55112e-17
197 2 169.279 105.879 -5.55112e-17
198 2 150.715 130.31 -5.55112e-17
199 2 205.602 157.63 -5.55112e-17
200 2 54.1073 147.984 -5.55112e-17
201 2 174.716 88.5812 -5.55112e-17
202 1 140.064 161.195 -5.55112e-17
203 1 97.7486 20.9258 -5.55112e-17
204 2 156.793 16.9442 -5.55112e-17
205 2 192.687 171.017 -5.55112e-17
206 2 192.926 69.0119 -5.55112e-17
207 1 10.5994 128.593 -5.55112e-17
208 2 161.716 7.88986 -5.55112e-17
209 2 15.0029 209.919 -5.55112e-17
210 1 154.285 97.2448 -5.55112e-17
211 1 153.246 105.367 -5.55112e-17
212 1 15.3537 129.056 -5.55112e-17
213 1 113.7 16.5686 -5.55112e-17
214 2 20.094 166.711 -5.55112e-17
215 1 4.18158 160.227 -5.55112e-17
216 1 202.196 217.025 -5.55112e-17
217 1 199.845 31.4125 -5.55112e-17
218 2 118.587 149.429 -5.55112e-17
219 2 62.1295 187.783 -5.55112e-17
220 1 51.9363 202.868 -5.55112e-17
221 2 157.278 37.6611 -5.55112e-17
222 1 185.924 163.188 -5.55112e-17
223 1 40.317 121.63 -5.55112e-17
224 2 104.383 186.274 -5.55112e-17
225 2 85.3598 125.769 -5.55112e-17
226 1 181.3 38.0812 -5.55112e-17
227 2 11.8822 84.2727 -5.55112e-17
228 2 142.717 51.1369 -5.55112e-17
229 1 129.016 94.3894 -5.55112e-17
230 1 98.1219 69.464 -5.55112e-17
231 2 216.996 71.1767 -5.55112e-17
232 1 0.0239143 152.681 -5.55112e-17
233 2 98.3607 82.5426 -5.55112e-17
234 1 116.399 1.63537 -5.55112e-17
235 1 38.1371 44.6764 -5.55112e-17
236 2 80.0873 9.86114 -5.55112e-17
237 2 91.4438 114.01 -5.55112e-17
238 2 152.535 61.2663 -5.55112e-17
239 1 132.325 71.6238 -5.55112e-17
240 1 131.967 107.772 -5.55112e-17
241 2 124.626 210.211 -5.55112e-17
242 1 98.5425 164.629 -5.55112e-17
243 2 179.512 159.319 -5.55112e-17
244 2 3.32342 18.1228 -5.55112e-17
245 1 134.827 107.66 -5.55112e-17
246 2 44.2134 79.6361 -5.55112e-17
247 2 190.577 87.4659 -5.55112e-17
248 1 61.4493 190.5 -5.55112e-17
249 1 185.104 198.21 -5.55112e-17
250 1 202.418 3.15113 -5.55112e-17
251 2 159.768 23.4129 -5.55112e-17
252 1 121.72 92.437 -5.55112e-17
253 2 188.911 199.125 -5.55112e-17
254 2 155.532 156.523 -5.55112e-17
255 2 79.5327 82.7554 -5.55112e-17
256 1 80.5863 91.5449 -5.55112e-17
257 2 218.688 102.209 -5.55112e-17
258 1 173.1 44.1157 -5.55112e-17
259 2 151.037 145.482 -5.55112e-17
260 1 46.1614 126.248 -5.55112e-17
261 2 114.822 179.493 -5.55112e-17
262 2 119.158 94.1996 -5.55112e-17
263 2 159.193 153.195 -5.55112e-17
264 1 191.662 146.938 -5.55112e-17
265 1 32.9182 91.3655 -5.55112e-17
266 1 217.427 51.8714 -5.55112e-17
267 2 133.705 109.795 -5.55112e-17
268 1 43.3468 171.355 -5.55112e-17
269 2 80.9082 52.4824 -5.55112e-17
270 2 130.71 76.8619 -5.55112e-17
271 2 196.289 60.055 -5.55112e-17
272 1 77.8888 171.182 -5.55112e-17
273 1 218.846 118.024 -5.55112e-17
274 1 86.7474 64.0898 -5.55112e-17
275 1 199.825 207.11 -5.55112e-17
276 1 202.513 150.967 -5.55112e-17
277 1 199.4 13.4238 -5.55112e-17
278 2 64.8884 216.204 -5.55112e-17
279 2 48.8502 167.831 -5.55112e-17
280 1 55.3089 83.0003 -5.55112e-17
281 2 195.866 214.807 -5.55112e-17
282 2 21.0757 50.015 -5.55112e-17
283 2 119.983 48.0739 -5.55112e-17
284 1 15.8223 107.58 -5.55112e-17
285 1 211.997 120.656 -5.55112e-17
286 2 131.544 4.49545 -5.55112e-17
287 2 200.756 111.78 -5.55112e-17
288 1 10.4385 108.136 -5.55112e-17
289 2 183.055 144.777 -5.55112e-17
290 1 183.523 80.5674 -5.55112e-17
291 2 52.2198 120.873 -5.55112e-17
292 1 7.40354 82.7361 -5.55112e-17
293 1 112.902 133.302 -5.55112e-17
294 1 135.659 105.078 -5.55112e-17
295 2 117.203 53.386 -5.55112e-17
296 1 158.521 110.317 -5.55112e-17
297 1 204.436 105.657 -5.55112e-17
298 2 87.2857 78.071 -5.55112e-17
299 1 163.627 26.1281 -5.55112e-17
300 2 163.451 206.479 -5.55112e-17
301 2 186.847 160.57 -5.55112e-17
302 2 133.55 78.5723 -5.55112e-17
303 1 99.5613 151.557 -5.55112e-17
304 1 136.473 72.0583 -5.55112e-17
305 1 135.659 132.538 -5.55112e-17
306 2 158.827 198.262 -5.55112e-17
307 2 23.7159 186.343 -5.55112e-17
308 2 29.3671 27.3782 -5.55112e-17
309 1 141.533 157.115 -5.55112e-17
310 1 103.318 126.645 -5.55112e-17
311 1 114.493 176.893 -5.55112e-17
312 2 141.627 180.19 -5.55112e-17
313 2 98.3441 172.735 -5.55112e-17
314 1 213.261 114.192 -5.55112e-17
315 2 111.444 95.355 -5.55112e-17
316 1 109.097 141.19 -5.55112e-17
317 1 39.6548 105.703 -5.55112e-17
318 1 92.9306 111.826 -5.55112e-17
319 2 193.186 142.327 -5.55112e-17
320 1 128.767 150.07 -5.55112e-17
321 1 175.946 51.1171 -5.55112e-17
322 1 30.7905 37.2602 -5.55112e-17
323 2 148.579 186.258 -5.55112e-17
324 2 52.2683 106.811 -5.55112e-17
325 2 218.743 91.1098 -5.55112e-17
326 1 26.6694 140.673 -5.55112e-17
327 1 207.434 22.0008 -5.55112e-17
328 2 212.699 66.8993 -5.55112e-17
329 2 60.9807 88.14 -5.55112e-17
330 2 122.247 24.0227 -5.55112e-17
331 2 148.127 88.3968 -5.55112e-17
332 2 7.04569 12.16 -5.55112e-17
333 2 131.432 102.79 -5.55112e-17
334 2 79.8035 163.05 -5.55112e-17
335 1 92.908 159.456 -5.55112e-17
336 2 36.7077 160.663 -5.55112e-17
337 2 157.891 106.284 -5.55112e-17
338 1 112.263 111.553 -5.55112e-17
339 2 148.8 28.1234 -5.55112e-17
340 2 110.948 208.198 -5.55112e-17
341 2 132.427 135.841 -5.55112e-17
342 2 162.852 0.801198 -5.55112e-17
343 2 163.366 28.4755 -5.55112e-17
344 1 192.153 209.958 -5.55112e-17
345 2 89.0264 186.727 -5.55112e-17
346 2 133.984 114.658 -5.55112e-17
347 1 157.854 208.847 -5.55112e-17
348 1 0.201311 123.743 -5.55112e-17
349 2 143.223 204.666 -5.55112e-17
350 2 21.4703 122.242 -5.55112e-17
351 1 63.8855 72.7276 -5.55112e-17
352 1 214.722 102.111 -5.55112e-17
353 2 102.068 151.199 -5.55112e-17
354 2 38.9761 103.084 -5.55112e-17
355 1 86.7471 134.134 -5.55112e-17
356 2 20.3088 61.7358 -5.55112e-17
357 1 89.2991 141.937 -5.55112e-17
358 1 1.9142 23.167 -5.55112e-17
359 1 76.2445 22.0151 -5.55112e-17
360 1 108.412 206.628 -5.55112e-17
361 2 34.8081 20.7032 -5.55112e-17
362 2 142.931 129.72 -5.55112e-17
363 1 194.548 202.301 -5.55112e-17
364 2 116.788 37.1276 -5.55112e-17
365 1 77.8864 119.013 -5.55112e-17
366 1 198.317 215.134 -5.55112e-17
367 1 202.92 212.881 -5.55112e-17
368 1 65.314 40.3658 -5.55112e-17
369 2 200.053 3.29325 -5.55112e-17
370 1 139.838 8.74275 -5.55112e-17
371 2 107.298 118.204 -5.55112e-17
372 1 20.7174 154.534 -5.55112e-17
373 2 155.654 217.388 -5.55112e-17
374 2 45.5694 135.129 -5.55112e-17
375 1 175.767 30.2259 -5.55112e-17
376 1 16.1304 75.3936 -5.55112e-17
377 2 114.891 32.3407 -5.55112e-17
378 2 28.3973 207.548 -5.55112e-17
379 2 47.1841 1.28756 -5.55112e-17
380 1 5.84566 78.5203 -5.55112e-17
381 1 43.2215 181.585 -5.55112e-17
382 1 62.4626 171.898 -5.55112e-17
383 1 59.3283 83.4862 -5.55112e-17
384 2 152.946 117.224 -5.55112e-17
385 1 135.246 7.85682 -5.55112e-17
386 2 59.5948 16.7006 -5.55112e-17
387 1 193.633 105.294 -5.55112e-17
388 1 117.624 157.083 -5.55112e-17
389 2 89.4691 11.4014 -5.55112e-17
390 1 43.1645 121.407 -5.55112e-17
391 1 10.3868 79.2212 -5.55112e-17
392 2 40.9484 216.054 -5.55112e-17
393 2 138.841 200.648 -5.55112e-17
394 1 77.6279 59.8041 -5.55112e-17
395 1 86.6658 174.198 -5.55112e-17
396 2 6.27674 25.7374 -5.55112e-17
397 1 58.7018 202.716 -5.55112e-17
398 2 217.053 140.548 -5.55112e-17
399 2 34.4138 121.299 -5.55112e-17
400 2 117.45 151.988 -5.55112e-17
401 2 0.504902 53.9091 -5.55112e-17
402 1 27.3411 198.43 -5.55112e-17
403 1 10.5225 138.005 -5.55112e-17
404 2 105.577 155.151 -5.55112e-17
405 1 53.3933 79.3485 -5.55112e-17
406 2 5.02088 180.803 -5.55112e-17
407 1 163.362 138.66 -5.55112e-17
408 1 211.022 204.587 -5.55112e-17
409 2 158.121 60.4303 -5.55112e-17
410 2 166.235 206.239 -5.55112e-17
411 1 123.724 164.608 -5.55112e-17
412 1 62.989 75.0892 -5.55112e-17
413 1 149.837 90.71 -5.55112e-17
414 2 11.7307 110.767 -5.55112e-17
415 1 61.2449 195.829 -5.55112e-17
416 1 57.8066 213.879 -5.55112e-17
417 2 216.025 164.198 -5.55112e-17
418 2 139.037 117.686 -5.55112e-17
419 2 3.87571 12.4714 -5.55112e-17
420 2 172.077 41.7252 -5.55112e-17
421 1 183.142 191.091 -5.55112e-17
422 1 162.87 41.9507 -5.55112e-17
423 2 33.2107 110.942 -5.55112e-17
424 2 109.544 185.846 -5.55112e-17
425 2 78.1527 17.0404 -5.55112e-17
426 1 54.5885 34.1542 -5.55112e-17
427 2 128.58 28.4378 -5.55112e-17
428 1 152.342 51.6584 -5.55112e-17
429 2 41.9785 82.587 -5.55112e-17
430 2 56.8073 45.5754 -5.55112e-17
431 1 93.076 189.036 -5.55112e-17
432 2 126.77 93.7808 -5.55112e-17
433 1 116.905 6.40682 -5.55112e-17
434 1 92.3327 109.69 -5.55112e-17
435 1 218.784 148.518 -5.55112e-17
436 2 162.348 101.753 -5.55112e-17
437 2 12.326 10.4516 -5.55112e-17
438 2 167.292 177.409 -5.55112e-17
439 2 149.608 215.089 -5.55112e-17
440 2 213.427 36.2115 -5.55112e-17
441 1 9.64278 155.761 -5.55112e-17
442 1 2.86156 109.885 -5.55112e-17
443 2 124.265 214.945 -5.55112e-17
444 1 33.1659 93.93 -5.55112e-17
445 1 132.796 32.566 -5.55112e-17
446 2 4.24103 193.922 -5.55112e-17
447 2 86.8653 168.242 -5.55112e-17
448 2 83.8322 36.9036 -5.55112e-17
449 1 62.7073 130.638 -5.55112e-17
450 1 132.562 14.4247 -5.55112e-17
451 1 100.451 162.635 -5.55112e-17
452 2 104.981 197.396 -5.55112e-17
453 1 196.635 145.814 -5.55112e-17
454 1 8.67594 94.8266 -5.55112e-17
455 2 164.555 217.267 -5.55112e-17
456 1 126.759 148.516 -5.55112e-17
457 2 120.109 132.989 -5.55112e-17
458 2 33.4149 115.916 -5.55112e-17
459 2 80.5993 166.188 -5.55112e-17
460 1 21.363 119.612 -5.55112e-17
461 1 186.552 18.8258 -5.55112e-17
462 1 37.3784 10.0488 -5.55112e-17
463 2 146.525 66.2376 -5.55112e-17
464 2 158.003 83.1441 -5.55112e-17
465 1 12.9397 27.0606 -5.55112e-17
466 2 75.2611 160.28 -5.55112e-17
467 2 18.9405 195.247 -5.55112e-17
468 2 10.8237 163.12 -5.55112e-17
469 2 50.5282 114.48 -5.55112e-17
470 2 121.328 63.5915 -5.55112e-17
471 2 45.9037 69.4208 -5.55112e-17
472 2 158.322 141.502 -5.55112e-17
473 2 122.766 13.5731 -5.55112e-17
474 2 31.8703 104.464 -5.55112e-17
475 1 85.3004 18.3397 -5.55112e-17
476 2 75.6524 90.9925 -5.55112e-17
477 1 147.962 104.769 -5.55112e-17
478 1 130.487 134.316 -5.55112e-17
479 2 36.5031 72.8804 -5.55112e-17
480 1 16.6507 152.92 -5.55112e-17
481 1 214.732 202.685 -5.55112e-17
482 2 33.0074 207.638 -5.55112e-17
483 1 89.7355 135.198 -5.55112e-17
484 1 70.4852 75.1223 -5.55112e-17
485 2 167.171 161.788 -5.55112e-17
486 1 91.2701 140.296 -5.55112e-17
487 1 89.091 167.22 -5.55112e-17
488 1 191.782 93.4345 -5.55112e-17
489 1 202.796 181.961 -5.55112e-17
490 1 24.864 160.13 -5.55112e-17
491 1 121.743 195.59 -5.55112e-17
492 2 66.626 114.579 -5.55112e-17
493 1 33.555 133.617 -5.55112e-17
494 2 218.373 22.2791 -5.55112e-17
495 1 14.5516 29.3909 -5.55112e-17
496 1 57.6964 27.4141 -5.55112e-17
497 1 10.9191 67.2722 -5.55112e-17
498 2 50.6521 218.284 -5.55112e-17
499 2 38.3963 131.893 -5.55112e-17
500 2 215.098 177.877 -5.55112e-17
501 2 168.072 131.36 -5.55112e-17
502 2 45.0437 156.583 -5.55112e-17
503 2 57.4481 118.745 -5.55112e-17
504 2 129.97 216.954 -5.55112e-17
505 2 175.287 48.623 -5.55112e-17
506 1 108.904 22.1128 -5.55112e-17
507 2 130.814 80.1469 -5.55112e-17
508 1 157.606 196.014 -5.55112e-17
509 1 173.403 23.2737 -5.55112e-17
510 1 41.653 199.187 -5.55112e-17
511 2 11.4983 25.0202 -5.55112e-17
512 1 137.792 160.116 -5.55112e-17
513 2 33.8631 71.1012 -5.55112e-17
514 2 212.141 94.8215 -5.55112e-17
515 1 62.1559 216.746 -5.55112e-17
516 2 153.993 186.892 -5.55112e-17
517 1 18.0927 36.1734 -5.55112e-17
518 2 136.572 109.914 -5.55112e-17
519 1 156.232 136.907 -5.55112e-17
520 2 146.13 16.4324 -5.55112e-17
521 2 90.7978 206.526 -5.55112e-17
522 1 140.757 130.765 -5.55112e-17
523 1 63.0586 53.6314 -5.55112e-17
524 2 149.591 8.44389 -5.55112e-17
525 2 110.91 202.368 -5.55112e-17
526 2 16.1664 48.8613 -5.55112e-17
527 1 199.075 50.3918 -5.55112e-17
528 1 84.5273 64.2812 -5.55112e-17
529 2 129.367 196.396 -5.55112e-17
530 2 184.572 47.1585 -5.55112e-17
531 2 209.688 94.0866 -5.55112e-17
532 1 109.706 40.9353 -5.55112e-17
533 2 132.071 198.365 -5.55112e-17
534 1 14.9246 137.395 -5.55112e-17
535 1 59.7716 13.5791 -5.55112e-17
536 2 192.024 153.732 -5.55112e-17
537 1 4.01516 88.8131 -5.55112e-17
538 1 183.402 140.552 -5.55112e-17
539 2 38.5636 183.293 -5.55112e-17
540 1 85.4784 105.216 -5.55112e-17
541 1 208.24 12.9816 -5.55112e-17
542 1 45.8699 116.941 -5.55112e-17
543 2 172.995 36.4202 -5.55112e-17
544 1 70.8391 204.49 -5.55112e-17
545 1 124.892 122.839 -5.55112e-17
546 2 48.8028 144.541 -5.55112e-17
547 1 215.59 34.9238 -5.55112e-17
548 1 67.9602 103.073 -5.55112e-17
549 2 99.0344 55.7176 -5.55112e-17
550 2 206.271 92.6321 -5.55112e-17
551 2 103.324 49.7689 -5.55112e-17
552 1 214.085 124.565 -5.55112e-17
553 2 34.3831 139.938 -5.55112e-17
554 2 190.225 91.5246 -5.55112e-17
555 2 156.44 179.239 -5.55112e-17
556 1 82.6523 188.77 -5.55112e-17
557 1 25.3843 43.8248 -5.55112e-17
558 1 143.079 4.97741 -5.55112e-17
559 2 192.026 194.42 -5.55112e-17
560 2 2.83103 6.04076 -5.55112e-17
561 2 124.66 42.3411 -5.55112e-17
562 2 24.0786 84.6936 -5.55112e-17
563 1 31.8332 121.202 -5.55112e-17
564 2 86.416 2.3905 -5.55112e-17
565 2 216.072 147.993 -5.55112e-17
566 2 185.185 133.261 -5.55112e-17
567 1 12.1631 71.6401 -5.55112e-17
568 1 172.543 78.8389 -5.55112e-17
569 2 194.373 166.175 -5.55112e-17
570 2 87.783 104.135 -5.55112e-17
571 2 54.8977 105.052 -5.55112e-17
572 1 178.511 60.1448 -5.55112e-17
573 2 197.162 117.682 -5.55112e-17
574 2 193.907 146.039 -5.55112e-17
575 1 48.5252 29.2224 -5.55112e-17
576 1 154.003 92.7088 -5.55112e-17
577 1 170.039 112.022 -5.55112e-17
578 1 111.437 15.8691 -5.55112e-17
579 2 105.214 9.19879 -5.55112e-17
580 1 53.1723 97.5186 -5.55112e-17
581 1 148.665 206.881 -5.55112e-17
582 2 169.906 169.228 -5.55112e-17
583 2 106.503 66.452 -5.55112e-17
584 2 34.6014 100.439 -5.55112e-17
585 1 118.002 21.307 -5.55112e-17
586 1 139.282 96.2281 -5.55112e-17
587 1 103.267 148.664 -5.55112e-17
588 2 145.227 134.661 -5.55112e-17
589 1 210.739 194.85 -5.55112e-17
590 2 102.203 90.2838 -5.55112e-17
591 2 125.378 157.821 -5.55112e-17
592 1 186.746 73.5384 -5.55112e-17
593 1 17.9713 52.518 -5.55112e-17
594 1 35.6993 131.919 -5.55112e-17
595 1 103.913 165.841 -5.55112e-17
596 2 152.235 177.393 -5.55112e-17
597 2 77.3179 10.8706 -5.55112e-17
598 2 139.907 167.131 -5.55112e-17
599 2 2.71328 0.754404 -5.55112e-17
600 2 115.894 8.81601 -5.55112e-17
601 1 152.627 174.816 -5.55112e-17
602 1 166.448 14.638 -5.55112e-17
603 2 30.1938 211.155 -5.55112e-17
604 1 0.210304 174.476 -5.55112e-17
605 2 145.943 93.0323 -5.55112e-17
606 2 74.9206 183.399 -5.55112e-17
607 2 73.431 197.965 -5.55112e-17
608 2 94.06 104.255 -5.55112e-17
609 1 139.295 218.181 -5.55112e-17
610 2 83.6071 147.699 -5.55112e-17
611 1 116.707 190.932 -5.55112e-17
612 1 149.517 41.3846 -5.55112e-17
613 2 18.6866 59.2258 -5.55112e-17
614 1 107.394 131.969 -5.55112e-17
615 1 141.457 165.239 -5.55112e-17
616 2 69.0594 210.926 -5.55112e-17
617 1 108.187 171.189 -5.55112e-17
618 1 41.7287 80.0259 -5.55112e-17
619 1 137.331 162.397 -5.55112e-17
620 2 137.007 166.017 -5.55112e-17
621 2 173.182 55.8621 -5.55112e-17
622 2 203.82 14.3317 -5.55112e-17
623 2 132.432 88.0301 -5.55112e-17
624 1 92.4166 92.5786 -5.55112e-17
625 2 152.562 58.379 -5.55112e-17
626 1 71.693 206.95 -5.55112e-17
627 2 17.7551 89.8962 -5.55112e-17
628 1 158.999 55.7643 -5.55112e-17
629 1 5.26157 177.809 -5.55112e-17
630 2 127.508 124.196 -5.55112e-17
631 2 94.5342 149.999 -5.55112e-17
632 2 42.3743 196.515 -5.55112e-17
633 2 144.92 170.564 -5.55112e-17
634 2 125.171 88.4972 -5.55112e-17
635 2 14.2887 175.695 -5.55112e-17
636 1 79.9081 100.92 -5.55112e-17
637 1 27.5132 103.475 -5.55112e-17
638 1 0.990292 79.9092 -5.55112e-17
639 2 41.6734 131.294 -5.55112e-17
640 2 4.24302 149.15 -5.55112e-17
641 1 122.225 58.7589 -5.55112e-17
642 2 168.328 25.5482 -5.55112e-17
643 1 128.155 163.576 -5.55112e-17
644 2 7.7305 20.0005 -5.55112e-17
645 2 203.927 63.0597 -5.55112e-17
646 1 216.211 37.1192 -5.55112e-17
647 2 89.6573 152.189 -5.55112e-17
648 2 78.2235 80.2881 -5.55112e-17
649 1 165.654 42.7318 -5.55112e-17
650 1 114.442 6.53306 -5.55112e-17
651 1 149.592 170.677 -5.55112e-17
652 2 71.2679 23.7577 -5.55112e-17
653 2 193.955 36.6014 -5.55112e-17
654 1 120.687 99.428 -5.55112e-17
655 1 202.88 42.8649 -5.55112e-17
656 1 191.659 161.522 -5.55112e-17
657 1 81.282 12.3199 -5.55112e-17
658 2 103.558 216.124 -5.55112e-17
659 2 149.425 19.6856 -5.55112e-17
660 1 116.435 61.7967 -5.55112e-17
661 2 171.53 33.4695 -5.55112e-17
662 2 134.822 18.6671 -5.55112e-17
663 1 132.444 218.524 -5.55112e-17
664 1 106.994 195.755 -5.55112e-17
665 1 56.4368 157.506 -5.55112e-17
666 1 100.113 26.6605 -5.55112e-17
667 1 149.257 62.1289 -5.55112e-17
668 1 0.838301 202.771 -5.55112e-17
669 1 126.591 73.4685 -5.55112e-17
670 2 151.534 186.042 -5.55112e-17
671 1 103.281 170.639 -5.55112e-17
672 1 44.0256 26.4115 -5.55112e-17
673 2 142.774 47.7985 -5.55112e-17
674 2 157.35 176.472 -5.55112e-17
675 2 215.908 66.3774 -5.55112e-17
676 1 65.6778 10.6877 -5.55112e-17
677 2 78.8297 73.2501 -5.55112e-17
678 1 56.6609 206.451 -5.55112e-17
679 1 78.766 111.872 -5.55112e-17
680 2 11.5435 157.317 -5.55112e-17
681 1 186.359 148.59 -5.55112e-17
682 1 59.915 135.738 -5.55112e-17
683 2 26.6651 158.137 -5.55112e-17
684 1 164.686 2.84853 -5.55112e-17
685 1 85.1849 157.905 -5.55112e-17
686 1 29.6093 198.744 -5.55112e-17
687 1 144.18 153.253 -5.55112e-17
688 1 213.204 185.511 -5.55112e-17
689 2 86.9881 107.494 -5.55112e-17
690 1 175.26 37.6386 -5.55112e-17
691 2 28.6773 85.3824 -5.55112e-17
692 2 185.696 138.746 -5.55112e-17
693 1 29.777 136.466 -5.55112e-17
694 2 69.5213 141.011 -5.55112e-17
695 2 178.144 82.1951 -5.55112e-17
696 2 99.0523 209.066 -5.55112e-17
697 1 110.214 153.853 -5.55112e-17
698 2 6.54909 151.948 -5.55112e-17
699 1 125.442 193.038 -5.55112e-17
700 2 103.033 63.6598 -5.55112e-17
701 2 197.656 11.1366 -5.55112e-17
702 1 64.2302 206.745 -5.55112e-17
703 1 142.384 22.5632 -5.55112e-17
704 1 71.6425 200.154 -5.55112e-17
705 1 81.3547 199.931 -5.55112e-17
706 1 202.312 106.458 -5.55112e-17
707 1 163.608 133.363 -5.55112e-17
708 2 4.20035 107.566 -5.55112e-17
709 1 123.572 175.198 -5.55112e-17
710 2 48.638 127.072 -5.55112e-17
711 2 1.62616 186.58 -5.55112e-17
712 1 27.856 212.393 -5.55112e-17
713 1 90.8276 180.188 -5.55112e-17
714 2 218.179 30.0253 -5.55112e-17
715 2 196.624 105.906 -5.55112e-17
716 1 34.1739 129.887 -5.55112e-17
717 1 135.888 180.434 -5.55112e-17
718 2 182.522 51.7661 -5.55112e-17
719 1 109.565 17.5045 -5.55112e-17
720 2 189.142 123.053 -5.55112e-17
721 2 122.868 66.2718 -5.55112e-17
722 2 195.14 99.4629 -5.55112e-17
723 2 94.95 157.899 -5.55112e-17
724 2 112.566 184.865 -5.55112e-17
725 2 152.488 66.5984 -5.55112e-17
726 2 16.2993 85.0739 -5.55112e-17
727 2 51.2603 84.135 -5.55112e-17
728 1 167.355 9.75414 -5.55112e-17
729 2 60.3989 54.8662 -5.55112e-17
730 2 112.83 154.353 -5.55112e-17
731 1 94.6364 42.5878 -5.55112e-17
732 2 10.3017 153.039 -5.55112e-17
733 2 44.266 184.356 -5.55112e-17
734 2 106.455 207.868 -5.55112e-17
735 2 156.825 80.1478 -5.55112e-17
736 1 102.433 47.5136 -5.55112e-17
737 2 216.641 124.74 -5.55112e-17
738 2 159.981 214.113 -5.55112e-17
739 2 25.662 218.66 -5.55112e-17
740 2 150.185 152.548 -5.55112e-17
741 2 44.2812 124.312 -5.55112e-17
742 1 71.048 196.716 -5.55112e-17
743 2 58.8792 191.528 -5.55112e-17
744 1 120.04 25.5624 -5.55112e-17
745 2 73.0057 181.011 -5.55112e-17
746 1 165.393 175.435 -5.55112e-17
747 1 11.9649 196.199 -5.55112e-17
748 2 160.954 140.047 -5.55112e-17
749 1 70.7869 163.378 -5.55112e-17
750 1 17.6553 150.993 -5.55112e-17
751 1 185.046 202.854 -5.55112e-17
752 2 73.3801 162.953 -5.55112e-17
753 1 121.066 116.701 -5.55112e-17
754 2 89.8619 111.574 -5.55112e-17
755 1 25.18 155.619 -5.55112e-17
756 2 2.23249 216.837 -5.55112e-17
757 1 182.557 49.0906 -5.55112e-17
758 2 3.50323 162.627 -5.55112e-17
759 1 128.263 189.777 -5.55112e-17
760 1 120.866 138.622 -5.55112e-17
761 2 1.36663 64.4466 -5.55112e-17
762 1 188.958 89.2915 -5.55112e-17
763 2 154.366 9.67806 -5.55112e-17
764 2 96.0223 127.55 -5.55112e-17
765 1 130.355 154.913 -5.55112e-17
766 2 142.543 8.96355 -5.55112e-17
767 2 58.6282 208.373 -5.55112e-17
768 2 156.195 4.00718 -5.55112e-17
769 2 62.1926 140.368 -5.55112e-17
770 1 168.164 92.5441 -5.55112e-17
771 1 201.986 83.2324 -5.55112e-17
772 1 56.6658 201.164 -5.55112e-17
773 2 139.27 205.855 -5.55112e-17
774 1 24.2077 59.0951 -5.55112e-17
775 1 53.9951 186.172 -5.55112e-17
776 2 54.1188 85.382 -5.55112e-17
777 2 20.6944 0.822824 -5.55112e-17
778 1 6.15873 57.9587 -5.55112e-17
779 1 173.641 217.863 -5.55112e-17
780 2 107.091 76.3551 -5.55112e-17
781 1 176.915 18.306 -5.55112e-17
782 2 4.50658 55.6035 -5.55112e-17
783 1 24.3882 150.864 -5.55112e-17
784 2 57.6236 183.588 -5.55112e-17
785 1 131.872 178.376 -5.55112e-17
786 1 135.457 93.2447 -5.55112e-17
787 2 210.639 60.1645 -5.55112e-17
788 2 51.4014 176.681 -5.55112e-17
789 2 145.014 197.767 -5.55112e-17
790 2 153.089 122.803 -5.55112e-17
791 2 9.82877 204.358 -5.55112e-17
792 1 7.38004 121.259 -5.55112e-17
793 1 24.2791 170.173 -5.55112e-17
794 2 68.0392 9.18941 -5.55112e-17
795 2 91.0008 104.029 -5.55112e-17
796 1 183.091 151.838 -5.55112e-17
797 1 69.4511 107.641 -5.55112e-17
798 1 7.34443 178.745 -5.55112e-17
799 2 137.833 154.087 -5.55112e-17
800 1 118.919 8.15077 -5.55112e-17
801 2 140.539 45.6995 -5.55112e-17
802 1 8.66766 68.343 -5.55112e-17
803 1 130.64 7.25953 -5.55112e-17
804 1 56.3931 126.578 -5.55112e-17
805 2 105.639 181.323 -5.55112e-17
806 2 99.5733 205.767 -5.55112e-17
807 2 150.258 85.9519 -5.55112e-17
808 2 86.9926 57.0706 -5.55112e-17
809 1 58.8869 132.952 -5.55112e-17
810 2 129.305 45.8532 -5.55112e-17
811 2 190.202 216.686 -5.55112e-17
812 1 199.803 154.181 -5.55112e-17
813 1 158.265 43.0811 -5.55112e-17
814 1 4.44101 86.1873 -5.55112e-17
815 1 16.0686 51.4328 -5.55112e-17
816 1 180.16 35.7827 -5.55112e-17
817 2 188.635 126.69 -5.55112e-17
818 2 77.0247 189.935 -5.55112e-17
819 2 178.76 163.815 -5.55112e-17
820 1 104.215 143.76 -5.55112e-17
821 1 25.7095 191.442 -5.55112e-17
822 2 35.7438 146.509 -5.55112e-17
823 1 149.805 212.161 -5.55112e-17
824 1 172.045 196.671 -5.55112e-17
825 1 68.6967 149.154 -5.55112e-17
826 2 121.387 140.985 -5.55112e-17
827 2 166.1 83.8302 -5.55112e-17
828 1 1.39679 45.1519 -5.55112e-17
829 2 201.318 199.52 -5.55112e-17
830 1 136.092 74.8866 -5.55112e-17
831 2 4.21703 170.358 -5.55112e-17
832 2 208.81 26.8511 -5.55112e-17
833 2 149.947 190.723 -5.55112e-17
834 1 55.2637 10.4283 -5.55112e-17
835 1 191.385 191.773 -5.55112e-17
836 1 177.521 5.60278 -5.55112e-17
837 2 57.96 56.3847 -5.55112e-17
838 2 26.1829 128.336 -5.55112e-17
839 1 84.143 213.721 -5.55112e-17
840 2 84.1842 12.0885 -5.55112e-17
841 2 166.181 133.886 -5.55112e-17
842 1 13.7129 34.2762 -5.55112e-17
843 1 77.315 144.553 -5.55112e-17
844 2 96.4256 141.673 -5.55112e-17
845 1 8.14146 202.396 -5.55112e-17
846 2 136.47 188.171 -5.55112e-17
847 1 120.227 212.147 -5.55112e-17
848 2 139.687 215.506 -5.55112e-17
849 1 152.92 55.8274 -5.55112e-17
850 2 23.5979 101.792 -5.55112e-17
851 2 193.81 135.896 -5.55112e-17
852 1 137.916 89.6819 -5.55112e-17
853 1 105.096 47.9346 -5.55112e-17
854 2 86.556 85.5553 -5.55112e-17
855 2 55.5885 212.347 -5.55112e-17
856 1 206.041 68.2916 -5.55112e-17