ITEM: TIMESTEP
0
ITEM: NUMBER OF ATOMS
7200
ITEM: BOX BOUNDS xy xz yz pp pp pp
0.0000000000000000e+00 2.1900000000000000e+02 0.0000000000000000e+00
0.0000000000000000e+00 2.1900000000000000e+02 0.0000000000000000e+00
-3.6499999999999999e-01 3.6499999999999999e-01 0.0000000000000000e+00
ITEM: ATOMS id type x y z
1 1 183.586 15.2631 -5.55112e-17
2 2 194.012 180.274 -5.55112e-17
3 2 144.124 180.887 -5.55112e-17
4 1 122.144 107.44 -5.55112e-17
5 1 98.515 124.384 -5.55112e-17
6 1 115.38 4.20406 -5.55112e-17
7 2 169.237 136.652 -5.55112e-17
8 2 59.4789 8.99053 -5.55112e-17
9 1 16.3238 0.549869 -5.55112e-17
10 2 49.3071 169.727 -5.55112e-17
11 2 216.419 85.3603 -5.55112e-17
12 1 44.3635 189.355 -5.55112e-17
13 2 187.186 67.9323 -5.55112e-17
14 1 55.2098 179.244 -5.55112e-17
15 2 193.495 4.18921 -5.55112e-17
16 2 5.93831 105.082 -5.55112e-17
17 1 66.8689 73.6033 -5.55112e-17
18 2 10.6559 170.339 -5.55112e-17
19 1 94.3382 130.581 -5.55112e-17
20 1 54.8346 37.0167 -5.55112e-17
21 1 150.527 203.172 -5.55112e-17
22 2 40.223 216.448 -5.55112e-17
23 2 27.1541 210.217 -5.55112e-17
24 2 1.69215 100.457 -5.55112e-17
25 2 17.1225 196.136 -5.55112e-17
26 2 150.831 217.903 -5.55112e-17
27 1 217.444 161.907 -5.55112e-17
28 2 53.4056 155.815 -5.55112e-17
29 2 93.0343 11.7315 -5.55112e-17
30 2 127.115 42.9028 -5.55112e-17
31 2 155.05 80.6927 -5.55112e-17
32 1 44.8397 126.837 -5.55112e-17
33 2 143.305 84.1163 -5.55112e-17
34 2 24.9452 108.888 -5.55112e-17
35 2 99.2991 26.7214 -5.55112e-17
36 1 169.659 149.702 -5.55112e-17
37 1 140.927 174.072 -5.55112e-17
38 2 212.643 156.945 -5.55112e-17
39 1 0.769704 41.9583 -5.55112e-17
40 2 196.99 82.3489 -5.55112e-17
41 1 188.557 75.0414 -5.55112e-17
42 1 69.5982 54.4895 -5.55112e-17
43 1 199.625 145.493 -5.55112e-17
44 1 161.554 202.169 -5.55112e-17
45 2 159.373 57.9444 -5.55112e-17
46 1 128.158 191.111 -5.55112e-17
47 2 96.3677 39.1777 -5.55112e-17
48 2 155 126.935 -5.55112e-17
49 1 192.706 204.845 -5.55112e-17
50 2 19.2385 42.8025 -5.55112e-17
51 1 186.881 7.90727 -5.55112e-17
52 1 70.4978 63.6279 -5.55112e-17
53 2 60.0972 193.87 -5.55112e-17
54 1 42.2925 217.891 -5.55112e-17
55 2 53.6413 142.533 -5.55112e-17
56 1 32.1845 132.827 -5.55112e-17
57 2 59.7702 127.769 -5.55112e-17
58 1 176.318 54.4928 -5.55112e-17
59 1 156.11 83.0038 -5.55112e-17
60 2 202.441 72.5017 -5.55112e-17
61 1 154.528 166.068 -5.55112e-17
62 1 109.666 115.72 -5.55112e-17
63 2 105.625 18.8831 -5.55112e-17
64 1 33.7012 32.3296 -5.55112e-17
65 2 151.127 134.688 -5.55112e-17
66 2 12.0717 158.554 -5.55112e-17
67 2 174.592 96.266 -5.55112e-17
68 1 134.712 80.3331 -5.55112e-17
69 2 107.64 168.456 -5.55112e-17
70 1 140.783 94.5725 -5.55112e-17
71 1 206.297 138.178 -5.55112e-17
72 2 43.9729 157.75 -5.55112e-17
73 2 189.571 195.587 -5.55112e-17
74 2 108.979 56.7676 -5.55112e-17
75 1 14.2105 130.132 -5.55112e-17
76 2 142.41 199.955 -5.55112e-17
77 2 161.485 8.80341 -5.55112e-17
78 1 75.0913 215.004 -5.55112e-17
79 2 59.6741 73.6181 -5.55112e-17
80 1 57.4677 25.4626 -5.55112e-17
81 1 181.255 215.841 -5.55112e-17
82 1 179.859 67.44 -5.55112e-17
83 1 72.601 87.2004 -5.55112e-17
84 2 140.257 176.556 -5.55112e-17
85 2 144.829 152.437 -5.55112e-17
86 2 49.2412 68.0011 -5.55112e-17
87 2 15.5609 89.4672 -5.55112e-17
88 1 77.332 159.712 -5.55112e-17
89 2 187.265 109.143 -5.55112e-17
90 2 118.687 48.5069 -5.55112e-17
91 2 11.3546 187.238 -5.55112e-17
92 1 14.7215 217.37 -5.55112e-17
93 2 111.403 155.806 -5.55112e-17
94 2 116.125 136.182 -5.55112e-17
95 1 212.359 53.9872 -5.55112e-17
96 2 22.3007 46.877 -5.55112e-17
97 2 4.82841 210.528 -5.55112e-17
98 2 42.0424 190.293 -5.55112e-17
99 1 121.649 44.2736 -5.55112e-17
100 2 158.472 62.2866 -5.55112e-17
101 1 165.821 104.315 -5.55112e-17
102 1 65.5216 162.999 -5.55112e-17
103 2 192.181 101.188 -5.55112e-17
104 2 105.135 52.5245 -5.55112e-17
105 1 183.684 39.9499 -5.55112e-17
106 1 198.36 51.6425 -5.55112e-17
107 1 200.393 97.2354 -5.55112e-17
108 1 69.7024 211.289 -5.55112e-17
109 2 5.04266 46.3891 -5.55112e-17
110 2 144.556 30.1244 -5.55112e-17
111 1 54.9804 91.3445 -5.55112e-17
112 2 14.0216 55.2703 -5.55112e-17
113 1 134.893 9.22856 -5.55112e-17
114 1 83.2612 92.1473 -5.55112e-17
115 2 46.286 74.28 -5.55112e-17
116 2 181.789 17.2229 -5.55112e-17
117 1 150.636 121.176 -5.55112e-17
118 1 81.3398 94.04 -5.55112e-17
119 2 99.0175 138.88 -5.55112e-17
120 2 198.375 79.3586 -5.55112e-17
121 1 1.55285 134.604 -5.55112e-17
122 2 131.011 134.681 -5.55112e-17
123 2 2.48118 136.919 -5.55112e-17
124 1 155.63 209.927 -5.55112e-17
125 1 98.2247 190.977 -5.55112e-17
126 2 77.4588 71.3824 -5.55112e-17
127 2 199.615 105.04 -5.55112e-17
128 1 120.751 102.78 -5.55112e-17
129 1 148.319 172.248 -5.55112e-17
130 2 119.416 53.0034 -5.55112e-17
131 1 107.187 62.3312 -5.55112e-17
132 1 140.856 20.3563 -5.55112e-17
133 1 203.912 116.049 -5.55112e-17
134 1 104.052 194.77 -5.55112e-17
135 2 183.935 76.6932 -5.55112e-17
136 1 166.761 127.891 -5.55112e-17
137 1 64.8288 9.92777 -5.55112e-17
138 2 131.174 148.166 -5.55112e-17
139 1 116.681 8.30104 -5.55112e-17
140 1 164.407 185.908 -5.55112e-17
141 1 49.6865 70.7087 -5.55112e-17
142 1 2.1236 193.622 -5.55112e-17
143 1 32.0251 17.9988 -5.55112e-17
144 1 29.6333 77.1021 -5.55112e-17
145 2 186.695 80.6897 -5.55112e-17
146 1 174.355 118.375 -5.55112e-17
147 2 19.9195 136.717 -5.55112e-17
148 1 25.3616 134.032 -5.55112e-17
149 1 151.689 188.913 -5.55112e-17
150 2 78.291 42.004 -5.55112e-17
151 1 124.157 138.112 -5.55112e-17
152 1 179.762 180.189 -5.55112e-17
153 2 118.032 131.816 -5.55112e-17
154 1 167.895 42.4951 -5.55112e-17
155 2 209.853 53.794 -5.55112e-17
156 2 105.028 183.149 -5.55112e-17
157 2 173.152 14.6398 -5.55112e-17
158 2 29.9262 8.41096 -5.55112e-17
159 2 12.4421 161.581 -5.55112e-17
160 2 93.8111 45.5056 -5.55112e-17
161 2 131.302 124.939 -5.55112e-17
162 1 10.5054 67.2006 -5.55112e-17
163 1 208.91 51.0561 -5.55112e-17
164 2 113.297 130.834 -5.55112e-17
165 1 49.4808 77.6025 -5.55112e-17
166 2 11.6972 196.785 -5.55112e-17
167 1 105.437 170.193 -5.55112e-17
168 1 207.684 133.801 -5.55112e-17
169 2 121.913 213.075 -5.55112e-17
170 1 57.1055 210.825 -5.55112e-17
171 1 136.041 89.3752 -5.55112e-17
172 1 198.07 203.743 -5.55112e-17
173 1 42.5363 203.804 -5.55112e-17
174 2 39.3658 183.42 -5.55112e-17
175 2 55.0118 201.552 -5.55112e-17
176 1 120.301 158.374 -5.55112e-17
177 2 106.69 6.38853 -5.55112e-17
178 1 27.3594 8.55771 -5.55112e-17
179 2 115.525 192.072 -5.55112e-17
180 1 51.0121 92.7566 -5.55112e-17
181 1 16.2419 121.106 -5.55112e-17
182 1 97.7997 107.562 -5.55112e-17
183 1 62.985 166.928 -5.55112e-17
184 2 171.046 22.5268 -5.55112e-17
185 2 184.27 99.0667 -5.55112e-17
186 2 79.1319 212.102 -5.55112e-17
187 2 167.247 218.122 -5.55112e-17
188 2 48.3632 31.0397 -5.55112e-17
189 1 181.935 55.3644 -5.55112e-17
190 1 185.51 58.9772 -5.55112e-17
191 2 26.9096 99.3083 -5.55112e-17
192 2 87.2287 72.9399 -5.55112e-17
193 1 106.896 166.045 -5.55112e-17
194 1 28.5408 6.13025 -5.55112e-17
195 2 60.6761 118.685 -5.55112e-17
196 1 0.637862 1.8258 -5.55112e-17
197 2 98.6963 55.4775 -5.55112e-17
198 2 207.172 35.9082 -5.55112e-17
199 2 96.581 174.978 -5.55112e-17
200 2 110.023 39.7222 -5.55112e-17
201 2 107.205 130.543 -5.55112e-17
202 1 52.9605 24.8637 -5.55112e-17
203 1 18.8852 64.7239 -5.55112e-17
204 2 48.6108 87.5201 -5.55112e-17
205 2 192.019 182.439 -5.55112e-17
206 2 181.442 129.927 -5.55112e-17
207 1 64.4027 195.106 -5.55112e-17
208 2 126.605 62.1616 -5.55112e-17
209 2 34.229 144.214 -5.55112e-17
210 1 197.665 106.79 -5.55112e-17
211 1 192.184 47.6861 -5.55112e-17
212 1 17.6779 108.595 -5.55112e-17
213 1 130.038 122.097 -5.55112e-17
214 2 13.3188 12.6522 -5.55112e-17
215 1 19.9781 139.446 -5.55112e-17
216 1 63.3092 60.6855 -5.55112e-17
217 1 164.657 58.8337 -5.55112e-17
218 2 217.886 121.258 -5.55112e-17
219 2 146.791 179.111 -5.55112e-17
220 1 112.25 212.98 -5.55112e-17
221 2 87.2039 49.998 -5.55112e-17
222 1 148.039 131.183 -5.55112e-17
223 1 64.5626 121.854 -5.55112e-17
224 2 146.218 71.9728 -5.55112e-17
225 2 151.011 147.142 -5.55112e-17
226 1 197.336 14.1547 -5.55112e-17
227 2 203.651 218.652 -5.55112e-17
228 2 111.505 37.2236 -5.55112e-17
229 1 38.1748 217.719 -5.55112e-17
230 1 2.50773 55.3524 -5.55112e-17
231 2 141.973 154.06 -5.55112e-17
232 1 16.0575 215.026 -5.55112e-17
233 2 69.7668 204.337 -5.55112e-17
234 1 216.17 61.0397 -5.55112e-17
235 1 149.194 102.757 -5.55112e-17
236 2 157.173 49.5033 -5.55112e-17
237 2 95.9769 183.479 -5.55112e-17
238 2 96.9615 140.936 -5.55112e-17
239 1 49.0592 10.3748 -5.55112e-17
240 1 128.038 88.2373 -5.55112e-17
241 2 7.83891 130.542 -5.55112e-17
242 1 186.516 31.3112 -5.55112e-17
243 2 211.578 139.901 -5.55112e-17
244 2 32.9533 201.594 -5.55112e-17
245 1 152.335 24.8537 -5.55112e-17
246 2 83.4904 82.4263 -5.55112e-17
247 2 169.785 133.774 -5.55112e-17
248 1 32.4038 44.3072 -5.55112e-17
249 1 130.713 105.639 -5.55112e-17
250 1 135.736 25.9939 -5.55112e-17
251 2 114.284 57.2559 -5.55112e-17
252 1 112.338 158.36 -5.55112e-17
253 2 87.9345 97.5868 -5.55112e-17
254 2 177.802 212.003 -5.55112e-17
255 2 130.044 34.1397 -5.55112e-17
256 1 4.00553 189.989 -5.55112e-17
257 2 30.3934 192.264 -5.55112e-17
258 1 210.897 80.6607 -5.55112e-17
259 2 160.872 123.016 -5.55112e-17
260 1 62.8176 183.189 -5.55112e-17
261 2 144.972 184.33 -5.55112e-17
262 2 178.797 110.12 -5.55112e-17
263 2 93.3301 171.953 -5.55112e-17
264 1 166.666 32.1925 -5.55112e-17
265 1 136.088 182.171 -5.55112e-17
266 1 80.243 200.149 -5.55112e-17
267 2 95.3581 4.77323 -5.55112e-17
268 1 1.19964 49.8362 -5.55112e-17
269 2 15.2272 112.465 -5.55112e-17
270 2 201.527 146.994 -5.55112e-17
271 2 191.612 82.5219 -5.55112e-17
272 1 80.6187 2.29732 -5.55112e-17
273 1 71.0609 79.0975 -5.55112e-17
274 1 23.4467 196.908 -5.55112e-17
275 1 145.824 106.787 -5.55112e-17
276 1 203.472 78.3491 -5.55112e-17
277 1 96.5706 31.5102 -5.55112e-17
278 2 67.6789 153.06 -5.55112e-17
279 2 158.896 83.6924 -5.55112e-17
280 1 98.2454 211.572 -5.55112e-17
281 2 156.522 182.478 -5.55112e-17
282 2 77.3184 123.801 -5.55112e-17
283 2 2.87399 150.766 -5.55112e-17
284 1 125.113 110.945 -5.55112e-17
285 1 72.2668 164.658 -5.55112e-17
286 2 30.203 184.226 -5.55112e-17
287 2 101.531 88.3766 -5.55112e-17
288 1 105.41 116.377 -5.55112e-17
289 2 186.96 46.7086 -5.55112e-17
290 1 88.7016 29.4949 -5.55112e-17
291 2 102.295 179.323 -5.55112e-17
292 1 79.5578 122.151 -5.55112e-17
293 1 152.475 119.731 -5.55112e-17
294 1 30.1199 181.769 -5.55112e-17
295 2 46.3321 145.998 -5.55112e-17
296 1 183.606 188.028 -5.55112e-17
297 1 4.25652 19.9039 -5.55112e-17
298 2 32.0949 140.778 -5.55112e-17
299 1 184.418 68.9314 -5.55112e-17
300 2 194.495 199.766 -5.55112e-17
301 2 155.965 19.2065 -5.55112e-17
302 2 162.683 86.4402 -5.55112e-17
303 1 5.1022 151.876 -5.55112e-17
304 1 123.212 103.199 -5.55112e-17
305 1 91.6531 177.776 -5.55112e-17
306 2 85.7945 28.5906 -5.55112e-17
307 2 149.189 139.223 -5.55112e-17
308 2 143.38 21.1504 -5.55112e-17
309 1 89.3452 61.9965 -5.55112e-17
310 1 169.941 179.878 -5.55112e-17
311 1 149.843 105.114 -5.55112e-17
312 2 134.011 13.953 -5.55112e-17
313 2 161.224 30.0735 -5.55112e-17
314 1 205.426 99.7375 -5.55112e-17
315 2 58.8843 102.965 -5.55112e-17
316 1 119.986 58.1836 -5.55112e-17
317 1 134.098 173.553 -5.55112e-17
318 1 212.646 134.766 -5.55112e-17
319 2 100.259 201.562 -5.55112e-17
320 1 207.097 44.4911 -5.55112e-17
321 1 54.1357 86.3817 -5.55112e-17
322 1 51.1423 148.862 -5.55112e-17
323 2 30.0558 146.781 -5.55112e-17
324 2 31.1356 106.978 -5.55112e-17
325 2 217.639 15.3985 -5.55112e-17
326 1 185.246 5.53783 -5.55112e-17
327 1 11.7573 43.179 -5.55112e-17
328 2 20.0679 216.74 -5.55112e-17
329 2 37.8276 93.4564 -5.55112e-17
330 2 158.41 28.25 -5.55112e-17
331 2 197.919 56.3229 -5.55112e-17
332 2 120.464 111.912 -5.55112e-17
333 2 26.7874 146.095 -5.55112e-17
334 2 217.976 20.0668 -5.55112e-17
335 1 160.996 4.21903 -5.55112e-17
336 2 31.4109 143.785 -5.55112e-17
337 2 44.7912 3.03945 -5.55112e-17
338 1 185.822 120.063 -5.55112e-17
339 2 14.1145 153.779 -5.55112e-17
340 2 177.303 0.243868 -5.55112e-17
341 2 92.0405 84.7651 -5.55112e-17
342 2 161.023 165.14 -5.55112e-17
343 2 175.502 13.1248 -5.55112e-17
344 1 105.167 104.225 -5.55112e-17
345 2 42.3544 206.387 -5.55112e-17
346 2 104.238 66.2025 -5.55112e-17
347 1 146.319 95.3946 -5.55112e-17
348 1 181.843 8.66217 -5.55112e-17
349 2 169.048 71.2038 -5.55112e-17
350 2 74.9804 178.719 -5.55112e-17
351 1 171.449 115.003 -5.55112e-17
352 1 212.805 162.077 -5.55112e-17
353 2 139.526 122.788 -5.55112e-17
354 2 193.567 188.017 -5.55112e-17
355 1 217.479 156.267 -5.55112e-17
356 2 108.98 8.25647 -5.55112e-17
357 1 135.671 191.706 -5.55112e-17
358 1 73.5642 29.6504 -5.55112e-17
359 1 37.0811 145.412 -5.55112e-17
360 1 45.4445 18.1687 -5.55112e-17
361 2 200.793 52.1012 -5.55112e-17
362 2 177.5 95.4366 -5.55112e-17
363 1 98.4858 203.553 -5.55112e-17
364 2 1.53345 39.4472 -5.55112e-17
365 1 5.35253 165.176 -5.55112e-17
366 1 82.1928 173.92 -5.55112e-17
367 1 174.324 83.5613 -5.55112e-17
368 1 22.9647 172.582 -5.55112e-17
369 2 85.057 141.744 -5.55112e-17
370 1 208.807 126.802 -5.55112e-17
371 2 71.4793 109.396 -5.55112e-17
372 1 70.2222 36.5987 -5.55112e-17
373 2 104.729 197.417 -5.55112e-17
374 2 188.174 121.136 -5.55112e-17
375 1 137.334 24.1565 -5.55112e-17
376 1 117.894 157.549 -5.55112e-17
377 2 79.1783 47.264 -5.55112e-17
378 2 203.207 101.455 -5.55112e-17
379 2 181.909 182.121 -5.55112e-17
380 1 197.539 26.7785 -5.55112e-17
381 1 167.349 52.5183 -5.55112e-17
382 1 120.33 50.7089 -5.55112e-17
383 1 105.917 99.6264 -5.55112e-17
384 2 48.9767 102.528 -5.55112e-17
385 1 58.395 137.485 -5.55112e-17
386 2 184.411 160.162 -5.55112e-17
387 1 10.127 84.4068 -5.55112e-17
388 1 152.148 161.51 -5.55112e-17
389 2 215.875 114.384 -5.55112e-17
390 1 116.408 43.5855 -5.55112e-17
391 1 204.137 2.15001 -5.55112e-17
392 2 17.8252 105.738 -5.55112e-17
393 2 199.702 181.848 -5.55112e-17
394 1 47.8934 201.095 -5.55112e-17
395 1 13.6464 0.897271 -5.55112e-17
396 2 76.2133 83.496 -5.55112e-17
397 1 59.2487 40.4993 -5.55112e-17
398 2 161.839 129.358 -5.55112e-17
399 2 189.459 111.691 -5.55112e-17
400 2 118.965 71.1573 -5.55112e-17
401 2 85.5644 182.76 -5.55112e-17
402 1 78.966 16.847 -5.55112e-17
403 1 57.3284 112.111 -5.55112e-17
404 2 105.874 215.73 -5.55112e-17
405 1 60.0534 200.344 -5.55112e-17
406 2 215.835 97.0532 -5.55112e-17
407 1 121.793 77.4228 -5.55112e-17
408 1 131.372 27.6071 -5.55112e-17
409 2 1.14963 117.327 -5.55112e-17
410 2 73.8536 154.97 -5.55112e-17
411 1 135.116 93.9693 -5.55112e-17
412 1 165.024 4.3032 -5.55112e-17
413 1 46.7512 94.6352 -5.55112e-17
414 2 192.373 207.44 -5.55112e-17
415 1 102.856 115.225 -5.55112e-17
416 1 191.667 40.2258 -5.55112e-17
417 2 114.321 125.113 -5.55112e-17
418 2 34.8313 183.946 -5.55112e-17
419 2 211.267 99.389 -5.55112e-17
420 2 89.2473 55.1071 -5.55112e-17
421 1 83.4551 37.8672 -5.55112e-17
422 1 24.3605 66.1662 -5.55112e-17
423 2 121.083 125.227 -5.55112e-17
424 2 29.152 17.4429 -5.55112e-17
425 2 126.929 132.005 -5.55112e-17
426 1 163.988 108.379 -5.55112e-17
427 2 68.233 49.9218 -5.55112e-17
428 1 29.7703 179.246 -5.55112e-17
429 2 141.318 137.19 -5.55112e-17
430 2 110.679 101.228 -5.55112e-17
431 1 14.0674 9.82188 -5.55112e-17
432 2 176.372 2.94171 -5.55112e-17
433 1 180.318 184.551 -5.55112e-17
434 1 9.35473 198.25 -5.55112e-17
435 1 148.181 81.8105 -5.55112e-17
436 2 57.8503 180.028 -5.55112e-17
437 2 171.357 83.3187 -5.55112e-17
438 2 203.252 174.149 -5.55112e-17
439 2 98.5944 36.9689 -5.55112e-17
440 2 7.32176 100.721 -5.55112e-17
441 1 118.848 172.919 -5.55112e-17
442 1 29.2864 99.6128 -5.55112e-17
443 2 82.9638 79.454 -5.55112e-17
444 1 208.78 95.6621 -5.55112e-17
445 1 183.85 148.249 -5.55112e-17
446 2 174.007 143.701 -5.55112e-17
447 2 49.2849 49.6098 -5.55112e-17
448 2 185.792 167.279 -5.55112e-17
449 1 53.1564 177.712 -5.55112e-17
450 1 16.5564 128.983 -5.55112e-17
451 1 62.9482 6.14273 -5.55112e-17
452 2 201.789 64.3134 -5.55112e-17
453 1 216.687 145.427 -5.55112e-17
454 1 1.2733 69.4849 -5.55112e-17
455 2 66.2739 133.395 -5.55112e-17
456 1 82.1626 210.131 -5.55112e-17
457 2 172.406 135.901 -5.55112e-17
458 2 143.589 140.842 -5.55112e-17
459 2 148.285 66.7853 -5.55112e-17
460 1 189.971 160.796 -5.55112e-17
461 1 115.828 130.58 -5.55112e-17
462 1 90.1894 199.083 -5.55112e-17
463 2 111.977 7.31865 -5.55112e-17
464 2 33.1093 73.4728 -5.55112e-17
465 1 128.562 13.1511 -5.55112e-17
466 2 172.809 128.147 -5.55112e-17
467 2 65.2705 144.901 -5.55112e-17
468 2 133.742 136.126 -5.55112e-17
469 2 56.6842 70.0871 -5.55112e-17
470 2 206.444 149.225 -5.55112e-17
471 2 211.504 214.526 -5.55112e-17
472 2 84.7351 33.5341 -5.55112e-17
473 2 195.823 1.94431 -5.55112e-17
474 2 86.8616 147.263 -5.55112e-17
475 1 184.516 190.33 -5.55112e-17
476 2 187.577 42.2817 -5.55112e-17
477 1 209.681 1.89172 -5.55112e-17
478 1 56.3442 196.485 -5.55112e-17
479 2 17.9804 203.72 -5.55112e-17
480 1 58.8604 45.9579 -5.55112e-17
481 1 7.31495 205.765 -5.55112e-17
482 2 157.236 192.79 -5.55112e-17
483 1 127.004 197.314 -5.55112e-17
484 1 76.4755 134.269 -5.55112e-17
485 2 11.2078 175.572 -5.55112e-17
486 1 92.7362 79.3423 -5.55112e-17
487 1 25.5283 195.166 -5.55112e-17
488 1 50.0778 79.7393 -5.55112e-17
489 1 85.5398 114.221 -5.55112e-17
490 1 163.609 70.4518 -5.55112e-17
491 1 161.818 72.416 -5.55112e-17
492 2 210.599 18.0687 -5.55112e-17
493 1 102.435 32.9591 -5.55112e-17
494 2 94.8863 73.401 -5.55112e-17
495 1 149.031 88.7752 -5.55112e-17
496 1 53.8248 129.185 -5.55112e-17
497 1 135.644 107.595 -5.55112e-17
498 2 133.198 43.5416 -5.55112e-17
499 2 153.213 129.745 -5.55112e-17
500 2 56.9707 38.6067 -5.55112e-17
501 2 19.1658 142.12 -5.55112e-17
502 2 212.402 146.176 -5.55112e-17
503 2 54.6959 62.2511 -5.55112e-17
504 2 101.978 51.4571 -5.55112e-17
505 2 107.427 198.424 -5.55112e-17
506 1 208.127 9.02079 -5.55112e-17
507 2 51.1044 184.946 -5.55112e-17
508 1 130.377 68.5653 -5.55112e-17
509 1 211.513 46.1785 -5.55112e-17
510 1 191.621 85.1015 -5.55112e-17
511 2 105.533 203.298 -5.55112e-17
512 1 28.8273 47.071 -5.55112e-17
513 2 91.7016 184.125 -5.55112e-17
514 2 20.7798 86.4804 -5.55112e-17
515 1 63.3773 96.4653 -5.55112e-17
516 2 97.5138 92.3028 -5.55112e-17
517 1 34.4001 153.437 -5.55112e-17
518 2 11.8761 14.6698 -5.55112e-17
519 1 123.152 86.5247 -5.55112e-17
520 2 20.0954 109.834 -5.55112e-17
521 2 133.182 33.6797 -5.55112e-17
522 1 187.707 12.1693 -5.55112e-17
523 1 126.615 96.8923 -5.55112e-17
524 2 166.282 20.6108 -5.55112e-17
525 2 195.725 61.659 -5.55112e-17
526 2 86.5259 23.4374 -5.55112e-17
527 1 170.485 14.4439 -5.55112e-17
528 1 215.381 206.662 -5.55112e-17
529 2 112.048 187.096 -5.55112e-17
530 2 35.337 86.6661 -5.55112e-17
531 2 176.386 168.687 -5.55112e-17
532 1 108.819 13.8974 -5.55112e-17
533 2 20.0985 161.662 -5.55112e-17
534 1 24.0556 169.418 -5.55112e-17
535 1 174.311 205.875 -5.55112e-17
536 2 18.3993 171.381 -5.55112e-17
537 1 142.634 31.9526 -5.55112e-17
538 1 58.8276 156.367 -5.55112e-17
539 2 79.495 164.21 -5.55112e-17
540 1 34.9092 186.433 -5.55112e-17
541 1 119.142 126.717 -5.55112e-17
542 1 62.4821 120.431 -5.55112e-17
543 2 127.164 172.187 -5.55112e-17
544 1 217.033 213.337 -5.55112e-17
545 1 173.959 71.3214 -5.55112e-17
546 2 188.498 14.588 -5.55112e-17
547 1 37.1704 84.9757 -5.55112e-17
548 1 31.5181 5.9811 -5.55112e-17
549 2 22.4446 159.872 -5.55112e-17
550 2 181.756 194.762 -5.55112e-17
551 2 42.0749 22.4639 -5.55112e-17
552 1 16.84 55.1395 -5.55112e-17
553 2 217.461 183.207 -5.55112e-17
554 2 146.513 46.6285 -5.55112e-17
555 2 185.763 132.792 -5.55112e-17
556 1 170.227 212.755 -5.55112e-17
557 1 216.532 53.9354 -5.55112e-17
558 1 57.8359 145.524 -5.55112e-17
559 2 104.249 101.694 -5.55112e-17
560 2 59.0911 87.5618 -5.55112e-17
561 2 101.073 173.694 -5.55112e-17
562 2 84.2965 73.0363 -5.55112e-17
563 1 72.2359 167.207 -5.55112e-17
564 2 92.5367 68.2025 -5.55112e-17
565 2 26.3495 51.8532 -5.55112e-17
566 2 51.259 54.0499 -5.55112e-17
567 1 106.443 12.7486 -5.55112e-17
568 1 38.9627 72.7786 -5.55112e-17
569 2 145.762 175.746 -5.55112e-17
570 2 13.8473 21.6815 -5.55112e-17
571 2 2.29301 62.2062 -5.55112e-17
572 1 112.429 107.004 -5.55112e-17
573 2 30.2446 74.5602 -5.55112e-17
574 2 167.227 180.131 -5.55112e-17
575 1 195.599 211.396 -5.55112e-17
576 1 12.7618 103.469 -5.55112e-17
577 1 114.342 79.5136 -5.55112e-17
578 1 172.466 133.147 -5.55112e-17
579 2 206.747 62.5907 -5.55112e-17
580 1 108.389 99.7701 -5.55112e-17
581 1 93.5261 147.09 -5.55112e-17
582 2 124.561 98.5804 -5.55112e-17
583 2 109.339 81.5362 -5.55112e-17
584 2 108.633 152.621 -5.55112e-17
585 1 184.423 94.5486 -5.55112e-17
586 1 148.787 77.3449 -5.55112e-17
587 1 159.052 104.808 -5.55112e-17
588 2 67.264 102.894 -5.55112e-17
589 1 204.811 64.4431 -5.55112e-17
590 2 185.665 51.6026 -5.55112e-17
591 2 173.693 18.0316 -5.55112e-17
592 1 206.916 131.081 -5.55112e-17
593 1 125.375 87.4825 -5.55112e-17
594 1 3.72308 70.3929 -5.55112e-17
595 1 11.7843 71.9305 -5.55112e-17
596 2 122.523 66.1589 -5.55112e-17
597 2 68.4518 107.891 -5.55112e-17
598 2 134.085 84.8009 -5.55112e-17
599 2 94.6821 164.612 -5.55112e-17
600 2 60.7307 108.154 -5.55112e-17
601 1 144.837 104.475 -5.55112e-17
602 1 144.491 48.3721 -5.55112e-17
603 2 217.302 158.833 -5.55112e-17
604 1 49.0394 175.122 -5.55112e-17
605 2 138.919 97.0072 -5.55112e-17
606 2 148.899 95.7262 -5.55112e-17
607 2 38.9776 172.796 -5.55112e-17
608 2 131.765 41.4425 -5.55112e-17
609 1 78.8275 84.0319 -5.55112e-17
610 2 96.1547 179.889 -5.55112e-17
611 1 0.732335 165.813 -5.55112e-17
612 1 201.648 120.147 -5.55112e-17
613 2 215.189 155.103 -5.55112e-17
614 1 200.612 27.2231 -5.55112e-17
615 1 151.137 100.873 -5.55112e-17
616 2 157.096 171.353 -5.55112e-17
617 1 152.906 213.445 -5.55112e-17
618 1 130.73 3.71448 -5.55112e-17
619 1 147.68 117.759 -5.55112e-17
620 2 42.6624 86.5879 -5.55112e-17
621 2 192.316 77.6128 -5.55112e-17
622 2 126.727 139.877 -5.55112e-17
623 2 111.816 143.04 -5.55112e-17
624 1 101.868 187.202 -5.55112e-17
625 2 208.862 82.2804 -5.55112e-17
626 1 202.434 198.367 -5.55112e-17
627 2 191.373 190.309 -5.55112e-17
628 1 119.963 144.475 -5.55112e-17
629 1 18.7292 29.1666 -5.55112e-17
630 2 139.809 10.3194 -5.55112e-17
631 2 143.903 112.155 -5.55112e-17
632 2 210.918 22.6641 -5.55112e-17
633 2 62.3061 126.28 -5.55112e-17
634 2 201.458 80.4301 -5.55112e-17
635 2 106.497 67.6641 -5.55112e-17
636 1 90.1513 131.472 -5.55112e-17
637 1 0.688454 152.039 -5.55112e-17
638 1 126.824 53.5502 -5.55112e-17
639 2 196.862 70.4827 -5.55112e-17
640 2 152.119 73.4297 -5.55112e-17
641 1 211.066 96.6248 -5.55112e-17
642 2 144.359 33.9851 -5.55112e-17
643 1 158.133 52.2843 -5.55112e-17
644 2 127.579 158.586 -5.55112e-17
645 2 4.75281 75.3337 -5.55112e-17
646 1 178.131 157.37 -5.55112e-17
647 2 136.274 134.063 -5.55112e-17
648 2 189.268 214.924 -5.55112e-17
649 1 58.1112 140.22 -5.55112e-17
650 1 55.7597 154.26 -5.55112e-17
651 1 105.802 121.768 -5.55112e-17
652 2 8.1661 215.361 -5.55112e-17
653 2 188.684 39.432 -5.55112e-17
654 1 210.475 161.274 -5.55112e-17
655 1 66.3504 58.0652 -5.55112e-17
656 1 194.519 19.205 -5.55112e-17
657 1 124.183 117.812 -5.55112e-17
658 2 179.859 106.334 -5.55112e-17
659 2 106.281 140.628 -5.55112e-17
660 1 22.974 13.6096 -5.55112e-17
661 2 17.9941 31.7972 -5.55112e-17
662 2 135.008 114.378 -5.55112e-17
663 1 163.937 95.6849 -5.55112e-17
664 1 86.8177 124.811 -5.55112e-17
665 1 131.186 145.339 -5.55112e-17
666 1 186.59 152.618 -5.55112e-17
667 1 9.17833 128.256 -5.55112e-17
668 1 129.044 146.692 -5.55112e-17
669 1 108.358 161.805 -5.55112e-17
670 2 210.103 155.688 -5.55112e-17
671 1 5.16448 17.7784 -5.55112e-17
672 1 187.249 165.096 -5.55112e-17
673 2 51.7518 87.6241 -5.55112e-17
674 2 179.278 206.674 -5.55112e-17
675 2 157.746 205.195 -5.55112e-17
676 1 186.538 145.329 -5.55112e-17
677 2 53.4406 56.4605 -5.55112e-17
678 1 100.202 108.651 -5.55112e-17
679 1 62.0479 39.5388 -5.55112e-17
680 2 60.756 11.7065 -5.55112e-17
681 1 6.4216 10.4324 -5.55112e-17
682 1 141.443 171.686 -5.55112e-17
683 2 100.602 116.485 -5.55112e-17
684 1 23.411 182.76 -5.55112e-17
685 1 72.8274 200.995 -5.55112e-17
686 1 137.897 160.433 -5.55112e-17
687 1 95.6668 43.5875 -5.55112e-17
688 1 150.854 93.8779 -5.55112e-17
689 2 4.52787 135.03 -5.55112e-17
690 1 50.6348 119.482 -5.55112e-17
691 2 72.6707 114.541 -5.55112e-17
692 2 180.556 187.475 -5.55112e-17
693 1 161.047 95.6775 -5.55112e-17
694 2 154.77 139.824 -5.55112e-17
695 2 178.348 26.5744 -5.55112e-17
696 2 8.39447 93.9881 -5.55112e-17
697 1 121.79 28.9501 -5.55112e-17
698 2 39.0287 32.602 -5.55112e-17
699 1 72.0772 210.837 -5.55112e-17
700 2 18.7006 127.601 -5.55112e-17
701 2 24.1362 69.0775 -5.55112e-17
702 1 135.492 215.365 -5.55112e-17
703 1 191.218 62.9165 -5.55112e-17
704 1 168.867 125.596 -5.55112e-17
705 1 37.0615 127.632 -5.55112e-17
706 1 75.0898 160.917 -5.55112e-17
707 1 172.662 67.56 -5.55112e-17
708 2 192.084 127.917 -5.55112e-17
709 1 54.1873 158.316 -5.55112e-17
710 2 107.94 33.6616 -5.55112e-17
711 2 216.585 137.694 -5.55112e-17
712 1 92.5993 20.0076 -5.55112e-17
713 1 7.31965 153.688 -5.55112e-17
714 2 136.058 142.08 -5.55112e-17
715 2 131.421 84.218 -5.55112e-17
716 1 101.906 67.6997 -5.55112e-17
717 1 19.9103 81.9351 -5.55112e-17
718 2 91.9132 92.6819 -5.55112e-17
719 1 77.1989 200.293 -5.55112e-17
720 2 59.3604 203.162 -5.55112e-17
721 2 45.2323 204.795 -5.55112e-17
722 2 60.967 136.021 -5.55112e-17
723 2 21.992 167.475 -5.55112e-17
724 2 215.585 90.2049 -5.55112e-17
725 2 28.4074 69.5844 -5.55112e-17
726 2 178.035 134.835 -5.55112e-17
727 2 27.4792 110.519 -5.55112e-17
728 1 177.113 74.1393 -5.55112e-17
729 2 179.542 155.226 -5.55112e-17
730 2 166.719 109.317 -5.55112e-17
731 1 9.79524 24.2927 -5.55112e-17
732 2 102.53 83.1792 -5.55112e-17
733 2 154.086 148.114 -5.55112e-17
734 2 57.5686 208.3 -5.55112e-17
735 2 145.555 63.7756 -5.55112e-17
736 1 186.875 169.858 -5.55112e-17
737 2 29.8253 29.961 -5.55112e-17
738 2 85.192 208.869 -5.55112e-17
739 2 198.223 158.715 -5.55112e-17
740 2 35.6217 109.888 -5.55112e-17
741 2 202.043 106.412 -5.55112e-17
742 1 74.3231 94.375 -5.55112e-17
743 2 87.7106 79.1628 -5.55112e-17
744 1 157.71 34.6451 -5.55112e-17
745 2 11.473 82.2895 -5.55112e-17
746 1 210.759 122.936 -5.55112e-17
747 1 96.943 163.194 -5.55112e-17
748 2 66.6892 204.736 -5.55112e-17
749 1 213.06 165.373 -5.55112e-17
750 1 155.15 120.89 -5.55112e-17
751 1 141.283 85.6539 -5.55112e-17
752 2 181.286 157.927 -5.55112e-17
753 1 41.5392 182.219 -5.55112e-17
754 2 65.515 78.0599 -5.55112e-17
755 1 14.5988 87.1429 -5.55112e-17
756 2 189.958 67.8799 -5.55112e-17
757 1 129.207 218.239 -5.55112e-17
758 2 123.555 12.1092 -5.55112e-17
759 1 100.682 133.55 -5.55112e-17
760 1 168.229 62.6881 -5.55112e-17
761 2 5.84325 95.5683 -5.55112e-17
762 1 187.732 113.869 -5.55112e-17
763 2 7.24202 158.739 -5.55112e-17
764 2 60.522 188.066 -5.55112e-17
765 1 27.1776 158.628 -5.55112e-17
766 2 99.4504 66.0974 -5.55112e-17
767 2 214.171 141.793 -5.55112e-17
768 2 85.272 58.2006 -5.55112e-17
769 2 171.771 94.7507 -5.55112e-17
770 1 133.139 18.7472 -5.55112e-17
771 1 64.6694 64.9376 -5.55112e-17
772 1 128.099 3.54489 -5.55112e-17
773 2 165.341 169.404 -5.55112e-17
774 1 92.2713 87.6601 -5.55112e-17
775 1 103.925 90.0299 -5.55112e-17
776 2 200.069 102.007 -5.55112e-17
777 2 45.5083 87.3861 -5.55112e-17
778 1 80.5778 6.58602 -5.55112e-17
779 1 49.7263 60.8287 -5.55112e-17
780 2 91.0093 30.3326 -5.55112e-17
781 1 27.5828 175.456 -5.55112e-17
782 2 121.109 160.837 -5.55112e-17
783 1 100.483 49.4078 -5.55112e-17
784 2 113.49 122.167 -5.55112e-17
785 1 193.338 90.5232 -5.55112e-17
786 1 32.1445 3.38652 -5.55112e-17
787 2 43.4231 201.503 -5.55112e-17
788 2 149.589 169.658 -5.55112e-17
789 2 20.7092 148.281 -5.55112e-17
790 2 91.5688 22.2667 -5.55112e-17
791 2 182.663 43.7539 -5.55112e-17
792 1 202.57 130.849 -5.55112e-17
793 1 95.9653 172.345 -5.55112e-17
794 2 210.674 9.17555 -5.55112e-17
795 2 1.73247 191.127 -5.55112e-17
796 1 73.7618 212.907 -5.55112e-17
797 1 41.5981 42.9649 -5.55112e-17
798 1 213.201 58.4801 -5.55112e-17
799 2 107.105 156.932 -5.55112e-17
800 1 40.3309 24.6813 -5.55112e-17
801 2 68.9805 80.8973 -5.55112e-17
802 1 56.3463 15.3273 -5.55112e-17
803 1 144.559 23.3583 -5.55112e-17
804 1 189.057 148.39 -5.55112e-17
805 2 211.831 107.482 -5.55112e-17
806 2 142.584 163.115 -5.55112e-17
807 2 204.937 34.2016 -5.55112e-17
808 2 68.4098 145.392 -5.55112e-17
809 1 172.281 60.7366 -5.55112e-17
810 2 25.2926 176.315 -5.55112e-17
811 2 187.255 33.9992 -5.55112e-17
812 1 112.655 178.399 -5.55112e-17
813 1 218.026 80.7395 -5.55112e-17
814 1 218.237 201.516 -5.55112e-17
815 1 146.016 37.1127 -5.55112e-17
816 1 195.273 67.8363 -5.55112e-17
817 2 62.3995 69.7844 -5.55112e-17
818 2 30.0287 123.701 -5.55112e-17
819 2 208.84 70.5151 -5.55112e-17
820 1 7.48269 64.1141 -5.55112e-17
821 1 80.1697 35.0869 -5.55112e-17
822 2 130.001 44.0669 -5.55112e-17
823 1 183.104 90.7023 -5.55112e-17
824 1 165.361 98.0391 -5.55112e-17
825 1 168.149 189.415 -5.55112e-17
826 2 179.764 74.4831 -5.55112e-17
827 2 104.928 46.4302 -5.55112e-17
828 1 51.7811 95.2598 -5.55112e-17
829 2 126.292 90.0275 -5.55112e-17
830 1 4.97922 157.513 -5.55112e-17
831 2 183.607 3.67232 -5.55112e-17
832 2 42.4481 69.6234 -5.55112e-17
833 2 75.6666 36.3344 -5.55112e-17
834 1 70.0301 163.287 -5.55112e-17
835 1 199.125 137.874 -5.55112e-17
836 1 150.707 68.0129 -5.55112e-17
837 2 166.369 89.8445 -5.55112e-17
838 2 99.6608 39.8026 -5.55112e-17
839 1 32.3046 34.71 -5.55112e-17
840 2 15.7339 115.583 -5.55112e-17
841 2 202.963 13.8397 -5.55112e-17
842 1 198.502 132.34 -5.55112e-17
843 1 205.364 31.657 -5.55112e-17
844 2 9.05214 30.8398 -5.55112e-17
845 1 46.4828 151.244 -5.55112e-17
846 2 166.599 210.868 -5.55112e-17
847 1 90.513 143.644 -5.55112e-17
848 2 115.601 13.5719 -5.55112e-17
849 1 10.4545 33.6383 -5.55112e-17
850 2 57.7206 65.7738 -5.55112e-17
851 2 216.879 31.8694 -5.55112e-17
852 1 140.257 183.263 -5.55112e-17
853 1 199.88 107.809 -5.55112e-17
854 2 105.331 145.894 -5.55112e-17
855 2 167.751 120.61 -5.55112e-17