ITEM: TIMESTEP
0
ITEM: NUMBER OF ATOMS
7200
ITEM: BOX BOUNDS xy xz yz pp pp pp
0.0000000000000000e+00 2.1900000000000000e+02 0.0000000000000000e+00
0.0000000000000000e+00 2.1900000000000000e+02 0.0000000000000000e+00
-3.6499999999999999e-01 3.6499999999999999e-01 0.0000000000000000e+00
ITEM: ATOMS id type x y z
1 1 135.105 58.2138 -5.55112e-17
2 2 144.94 10.5045 -5.55112e-17
3 2 47.8181 139.79 -5.55112e-17
4 1 31.6566 85.247 -5.55112e-17
5 1 147.854 187.775 -5.55112e-17
6 1 63.6856 120.829 -5.55112e-17
7 2 48.4385 214.037 -5.55112e-17
8 2 60.4082 174.886 -5.55112e-17
9 1 25.0801 57.5984 -5.55112e-17
10 2 126.519 209.453 -5.55112e-17
11 2 97.7844 17.8997 -5.55112e-17
12 1 5.52265 192.745 -5.55112e-17
13 2 183.718 198.293 -5.55112e-17
14 1 32.2422 69.7053 -5.55112e-17
15 2 30.8904 197.566 -5.55112e-17
16 2 133.032 71.7039 -5.55112e-17
17 1 110.224 152.246 -5.55112e-17
18 2 217.638 158.132 -5.55112e-17
19 1 149.515 64.3628 -5.55112e-17
20 1 64.6405 77.4948 -5.55112e-17
21 1 26.2016 47.7309 -5.55112e-17
22 2 164.387 65.6768 -5.55112e-17
23 2 53.1515 66.7046 -5.55112e-17
24 2 132.581 119.035 -5.55112e-17
25 2 104.54 148.489 -5.55112e-17
26 2 80.8719 4.53567 -5.55112e-17
27 1 184.265 195.835 -5.55112e-17
28 2 157.649 74.2431 -5.55112e-17
29 2 210.816 106.677 -5.55112e-17
30 2 42.2146 210.041 -5.55112e-17
31 2 140.465 68.6237 -5.55112e-17
32 1 107.254 208.902 -5.55112e-17
33 2 30.6491 45.0444 -5.55112e-17
34 2 215.847 1.19509 -5.55112e-17
35 2 139.807 123.994 -5.55112e-17
36 1 22.1235 96.9319 -5.55112e-17
37 1 36.1322 130.874 -5.55112e-17
38 2 149.376 158.455 -5.55112e-17
39 1 160.857 213.491 -5.55112e-17
40 2 106.225 167.662 -5.55112e-17
41 1 105.893 59.4845 -5.55112e-17
42 1 113.364 5.54594 -5.55112e-17
43 1 217.752 139.193 -5.55112e-17
44 1 123.016 202.522 -5.55112e-17
45 2 117.947 178.033 -5.55112e-17
46 1 51.0439 183.214 -5.55112e-17
47 2 149.129 218.017 -5.55112e-17
48 2 121.834 36.2782 -5.55112e-17
49 1 2.68056 133.587 -5.55112e-17
50 2 109.521 179.244 -5.55112e-17
51 1 126.691 181.191 -5.55112e-17
52 1 193.744 122.253 -5.55112e-17
53 2 8.57784 161.148 -5.55112e-17
54 1 165.296 89.7859 -5.55112e-17
55 2 126.745 29.6045 -5.55112e-17
56 1 152.271 6.6323 -5.55112e-17
57 2 96.9845 33.198 -5.55112e-17
58 1 162.599 77.3804 -5.55112e-17
59 1 45.1312 116.561 -5.55112e-17
60 2 131.394 212.046 -5.55112e-17
61 1 118.763 159.744 -5.55112e-17
62 1 75.4552 198.788 -5.55112e-17
63 2 160.105 18.5325 -5.55112e-17
64 1 30.8168 90.4175 -5.55112e-17
65 2 202.252 211.292 -5.55112e-17
66 2 192.266 61.1915 -5.55112e-17
67 2 115.32 99.4901 -5.55112e-17
68 1 28.702 178.906 -5.55112e-17
69 2 12.7583 99.9685 -5.55112e-17
70 1 116.155 9.8554 -5.55112e-17
71 1 214.627 3.48709 -5.55112e-17
72 2 35.8426 83.2475 -5.55112e-17
73 2 55.4419 190.444 -5.55112e-17
74 2 7.87958 192.444 -5.55112e-17
75 1 136.119 140.494 -5.55112e-17
76 2 212.145 35.8083 -5.55112e-17
77 2 71.8999 179.331 -5.55112e-17
78 1 157.615 116.504 -5.55112e-17
79 2 107.209 7.61164 -5.55112e-17
80 1 24.8156 145.721 -5.55112e-17
81 1 64.0222 16.0623 -5.55112e-17
82 1 103.41 191.872 -5.55112e-17
83 1 194.102 126.963 -5.55112e-17
84 2 173.439 50.9848 -5.55112e-17
85 2 85.6267 47.1054 -5.55112e-17
86 2 176.067 2.27838 -5.55112e-17
87 2 57.2547 101.668 -5.55112e-17
88 1 192.298 58.4144 -5.55112e-17
89 2 71.0784 65.9514 -5.55112e-17
90 2 101.781 11.1717 -5.55112e-17
91 2 13.2059 188.748 -5.55112e-17
92 1 127.652 36.7471 -5.55112e-17
93 2 26.5683 208.253 -5.55112e-17
94 2 176.305 50.6336 -5.55112e-17
95 1 136.665 47.3994 -5.55112e-17
96 2 208.151 59.9223 -5.55112e-17
97 2 20.893 91.5753 -5.55112e-17
98 2 188.915 105.914 -5.55112e-17
99 1 88.3117 123.512 -5.55112e-17
100 2 78.0369 47.1567 -5.55112e-17
101 1 8.52459 138.007 -5.55112e-17
102 1 188.576 195.277 -5.55112e-17
103 2 64.1817 91.6485 -5.55112e-17
104 2 141.246 21.1885 -5.55112e-17
105 1 5.40739 6.87659 -5.55112e-17
106 1 78.828 188.655 -5.55112e-17
107 1 213.981 218.361 -5.55112e-17
108 1 157.909 163.372 -5.55112e-17
109 2 16.3484 212.275 -5.55112e-17
110 2 108.892 90.2124 -5.55112e-17
111 1 60.4111 110.479 -5.55112e-17
112 2 114.122 79.8433 -5.55112e-17
113 1 25.7445 69.8604 -5.55112e-17
114 1 13.7183 206.395 -5.55112e-17
115 2 41.3868 196.85 -5.55112e-17
116 2 103.637 197.12 -5.55112e-17
117 1 70.7318 119.8 -5.55112e-17
118 1 99.3545 87.1276 -5.55112e-17
119 2 119.639 214.092 -5.55112e-17
120 2 4.11123 108.748 -5.55112e-17
121 1 168.509 34.9966 -5.55112e-17
122 2 139.59 112.675 -5.55112e-17
123 2 53.8515 195.958 -5.55112e-17
124 1 58.9853 201.202 -5.55112e-17
125 1 179.279 136.344 -5.55112e-17
126 2 93.905 51.2515 -5.55112e-17
127 2 20.1931 57.715 -5.55112e-17
128 1 119.887 29.1465 -5.55112e-17
129 1 108.295 152.76 -5.55112e-17
130 2 36.8373 78.9508 -5.55112e-17
131 1 21.4336 114.824 -5.55112e-17
132 1 184.43 165.868 -5.55112e-17
133 1 176.435 139.159 -5.55112e-17
134 1 145.089 100.184 -5.55112e-17
135 2 79.9768 157.306 -5.55112e-17
136 1 97.523 67.1162 -5.55112e-17
137 1 78.591 86.4361 -5.55112e-17
138 2 60.9306 92.4045 -5.55112e-17
139 1 155.969 148.5 -5.55112e-17
140 1 2.06016 151.895 -5.55112e-17
141 1 138.965 180.75 -5.55112e-17
142 1 205.356 183.605 -5.55112e-17
143 1 30.3987 16.3732 -5.55112e-17
144 1 85.5491 85.4956 -5.55112e-17
145 2 108.913 43.0365 -5.55112e-17
146 1 201.575 195.159 -5.55112e-17
147 2 17.8991 118.397 -5.55112e-17
148 1 51.2649 180.734 -5.55112e-17
149 1 131.782 23.3438 -5.55112e-17
150 2 137.599 57.9413 -5.55112e-17
151 1 28.5712 183.959 -5.55112e-17
152 1 71.8164 88.0577 -5.55112e-17
153 2 138.046 86.0594 -5.55112e-17
154 1 61.5256 102.349 -5.55112e-17
155 2 169.98 10.1688 -5.55112e-17
156 2 113.675 51.2166 -5.55112e-17
157 2 150.18 99.2566 -5.55112e-17
158 2 55.1076 24.4963 -5.55112e-17
159 2 16.5574 150.191 -5.55112e-17
160 2 205.021 86.9971 -5.55112e-17
161 2 199.454 129.157 -5.55112e-17
162 1 127.163 158.167 -5.55112e-17
163 1 89.683 173.105 -5.55112e-17
164 2 94.5046 166.689 -5.55112e-17
165 1 199.051 157.945 -5.55112e-17
166 2 92.5781 120.517 -5.55112e-17
167 1 62.6611 198.247 -5.55112e-17
168 1 141.295 181.325 -5.55112e-17
169 2 173.142 16.1234 -5.55112e-17
170 1 204.773 12.8443 -5.55112e-17
171 1 40.6404 149.353 -5.55112e-17
172 1 117.332 143.715 -5.55112e-17
173 1 11.4517 134.252 -5.55112e-17
174 2 141.206 216.694 -5.55112e-17
175 2 88.2342 207.613 -5.55112e-17
176 1 90.3142 91.5637 -5.55112e-17
177 2 151.224 25.6663 -5.55112e-17
178 1 135.142 13.147 -5.55112e-17
179 2 115.788 63.6129 -5.55112e-17
180 1 113.69 88.9706 -5.55112e-17
181 1 56.7024 169.693 -5.55112e-17
182 1 141.335 2.33662 -5.55112e-17
183 1 201 71.796 -5.55112e-17
184 2 166.742 24.5963 -5.55112e-17
185 2 99.44 121.089 -5.55112e-17
186 2 182.745 83.5133 -5.55112e-17
187 2 37.3256 74.3717 -5.55112e-17
188 2 142.033 33.8532 -5.55112e-17
189 1 23.5695 114.872 -5.55112e-17
190 1 123.402 106.914 -5.55112e-17
191 2 155.405 183.257 -5.55112e-17
192 2 121.367 198.259 -5.55112e-17
193 1 202.924 136.07 -5.55112e-17
194 1 176.287 132.59 -5.55112e-17
195 2 198.238 51.5055 -5.55112e-17
196 1 108.612 138.578 -5.55112e-17
197 2 74.0956 115.389 -5.55112e-17
198 2 211.06 151.92 -5.55112e-17
199 2 100.424 215.329 -5.55112e-17
200 2 120.578 75.9981 -5.55112e-17
201 2 109.474 61.9574 -5.55112e-17
202 1 106.827 48.9332 -5.55112e-17
203 1 78.1731 26.9745 -5.55112e-17
204 2 154.203 14.4196 -5.55112e-17
205 2 207.745 128.249 -5.55112e-17
206 2 76.1277 171.968 -5.55112e-17
207 1 115.88 145.206 -5.55112e-17
208 2 170.207 82.3502 -5.55112e-17
209 2 202.42 41.2372 -5.55112e-17
210 1 1.24981 122.192 -5.55112e-17
211 1 85.647 119.231 -5.55112e-17
212 1 9.32746 91.8453 -5.55112e-17
213 1 141.839 134.212 -5.55112e-17
214 2 120.632 216.574 -5.55112e-17
215 1 42.145 203.089 -5.55112e-17
216 1 54.4807 156.365 -5.55112e-17
217 1 118.278 77.2001 -5.55112e-17
218 2 123.426 44.5841 -5.55112e-17
219 2 89.925 12.9647 -5.55112e-17
220 1 183.441 14.6491 -5.55112e-17
221 2 195.812 85.8826 -5.55112e-17
222 1 33.3375 215.273 -5.55112e-17
223 1 63.5769 68.4648 -5.55112e-17
224 2 95.694 43.676 -5.55112e-17
225 2 24.0026 140.981 -5.55112e-17
226 1 174.762 137.395 -5.55112e-17
227 2 25.9498 118.803 -5.55112e-17
228 2 87.7064 105.781 -5.55112e-17
229 1 23.8052 150.067 -5.55112e-17
230 1 70.0853 130.938 -5.55112e-17
231 2 179.555 128.352 -5.55112e-17
232 1 198.372 204.161 -5.55112e-17
233 2 117.887 33.4449 -5.55112e-17
234 1 32.7361 206.022 -5.55112e-17
235 1 89.5102 164.656 -5.55112e-17
236 2 85.078 144.887 -5.55112e-17
237 2 49.4113 72.5912 -5.55112e-17
238 2 139.7 154.874 -5.55112e-17
239 1 39.8825 154.857 -5.55112e-17
240 1 125.103 68.6276 -5.55112e-17
241 2 201.556 36.0004 -5.55112e-17
242 1 173.556 100.356 -5.55112e-17
243 2 54.286 63.6145 -5.55112e-17
244 2 172.377 53.891 -5.55112e-17
245 1 209.762 118.176 -5.55112e-17
246 2 72.1182 167.348 -5.55112e-17
247 2 97.4727 168.592 -5.55112e-17
248 1 98.7953 82.6641 -5.55112e-17
249 1 23.1387 69.9126 -5.55112e-17
250 1 202.056 76.2191 -5.55112e-17
251 2 99.8921 66.9057 -5.55112e-17
252 1 77.9252 159.699 -5.55112e-17
253 2 160.774 90.0125 -5.55112e-17
254 2 79.2391 174.866 -5.55112e-17
255 2 14.8977 171.512 -5.55112e-17
256 1 12.6713 122.859 -5.55112e-17
257 2 26.6734 87.7448 -5.55112e-17
258 1 70.5369 53.9788 -5.55112e-17
259 2 60.9288 17.4097 -5.55112e-17
260 1 55.8063 22.261 -5.55112e-17
261 2 124.637 145.508 -5.55112e-17
262 2 20.3071 99.5405 -5.55112e-17
263 2 31.9367 95.9253 -5.55112e-17
264 1 124.761 134.903 -5.55112e-17
265 1 127.905 104.168 -5.55112e-17
266 1 152.131 111.926 -5.55112e-17
267 2 15.7491 152.905 -5.55112e-17
268 1 161.874 170.621 -5.55112e-17
269 2 36.3452 218.946 -5.55112e-17
270 2 36.1441 171.411 -5.55112e-17
271 2 116.754 180.952 -5.55112e-17
272 1 32.1248 139.042 -5.55112e-17
273 1 95.0346 31.673 -5.55112e-17
274 1 46.6728 201.96 -5.55112e-17
275 1 145.078 213.88 -5.55112e-17
276 1 34.9508 205.12 -5.55112e-17
277 1 151.478 197.785 -5.55112e-17
278 2 46.394 9.41621 -5.55112e-17
279 2 68.2292 4.76305 -5.55112e-17
280 1 178.994 66.6463 -5.55112e-17
281 2 151.061 31.5203 -5.55112e-17
282 2 141.894 114.785 -5.55112e-17
283 2 156.075 103.23 -5.55112e-17
284 1 193.005 52.2587 -5.55112e-17
285 1 81.2572 43.2007 -5.55112e-17
286 2 65.3735 94.7393 -5.55112e-17
287 2 210.096 182.551 -5.55112e-17
288 1 212.119 22.3557 -5.55112e-17
289 2 67.5232 199.215 -5.55112e-17
290 1 99.8597 144.656 -5.55112e-17
291 2 213.905 71.5288 -5.55112e-17
292 1 87.4213 81.6939 -5.55112e-17
293 1 208.053 67.0238 -5.55112e-17
294 1 50.7033 7.45879 -5.55112e-17
295 2 202.386 58.4203 -5.55112e-17
296 1 85.3551 213.168 -5.55112e-17
297 1 66.8402 170.424 -5.55112e-17
298 2 142.895 121.924 -5.55112e-17
299 1 79.8466 203.575 -5.55112e-17
300 2 188.392 145.453 -5.55112e-17
301 2 73.1631 153.171 -5.55112e-17
302 2 129.299 134.13 -5.55112e-17
303 1 135.091 199.431 -5.55112e-17
304 1 215.2 84.2661 -5.55112e-17
305 1 126.855 130.731 -5.55112e-17
306 2 100.262 138.11 -5.55112e-17
307 2 124.721 196.949 -5.55112e-17
308 2 186.719 22.1789 -5.55112e-17
309 1 6.04728 41.4606 -5.55112e-17
310 1 103.341 3.4602 -5.55112e-17
311 1 30.7353 187.743 -5.55112e-17
312 2 47.0712 186.379 -5.55112e-17
313 2 181.175 67.4106 -5.55112e-17
314 1 200.317 105.577 -5.55112e-17
315 2 34.0602 118.218 -5.55112e-17
316 1 136.861 11.7327 -5.55112e-17
317 1 95.1871 18.4907 -5.55112e-17
318 1 182.897 205.014 -5.55112e-17
319 2 8.62239 42.1938 -5.55112e-17
320 1 122 214.34 -5.55112e-17
321 1 84.332 110.341 -5.55112e-17
322 1 179.702 77.8388 -5.55112e-17
323 2 50.3814 46.4633 -5.55112e-17
324 2 53.9274 20.5831 -5.55112e-17
325 2 43.999 171.355 -5.55112e-17
326 1 1.47283 162.999 -5.55112e-17
327 1 19.1275 67.8363 -5.55112e-17
328 2 27.5812 40.2361 -5.55112e-17
329 2 29.4067 175.391 -5.55112e-17
330 2 61.028 20.4278 -5.55112e-17
331 2 9.314 19.8719 -5.55112e-17
332 2 105.063 111.941 -5.55112e-17
333 2 186.455 77.0425 -5.55112e-17
334 2 152.231 176.99 -5.55112e-17
335 1 43.0764 124.188 -5.55112e-17
336 2 109.744 106.205 -5.55112e-17
337 2 197.888 96.3211 -5.55112e-17
338 1 76.7022 24.8145 -5.55112e-17
339 2 185.572 42.2327 -5.55112e-17
340 2 68.6994 157.15 -5.55112e-17
341 2 42.5917 45.1936 -5.55112e-17
342 2 116.057 175.732 -5.55112e-17
343 2 203.309 20.4965 -5.55112e-17
344 1 173.583 97.7722 -5.55112e-17
345 2 205.116 150.087 -5.55112e-17
346 2 189.955 7.6385 -5.55112e-17
347 1 15.3409 117.912 -5.55112e-17
348 1 181.487 107.789 -5.55112e-17
349 2 111.505 81.7187 -5.55112e-17
350 2 211.38 52.5368 -5.55112e-17
351 1 22.3306 175.909 -5.55112e-17
352 1 215.064 143.479 -5.55112e-17
353 2 49.4267 172.263 -5.55112e-17
354 2 206.845 28.7843 -5.55112e-17
355 1 177.972 55.5703 -5.55112e-17
356 2 106.212 85.4795 -5.55112e-17
357 1 87.3357 22.1667 -5.55112e-17
358 1 128.106 2.91288 -5.55112e-17
359 1 147.513 51.3366 -5.55112e-17
360 1 128.857 106.328 -5.55112e-17
361 2 106.612 155.053 -5.55112e-17
362 2 27.7719 81.8333 -5.55112e-17
363 1 83.0077 91.2338 -5.55112e-17
364 2 39.3482 0.33095 -5.55112e-17
365 1 101.317 69.0472 -5.55112e-17
366 1 159.524 154.692 -5.55112e-17
367 1 143.144 106.693 -5.55112e-17
368 1 81.2426 81.8594 -5.55112e-17
369 2 91.8076 150.891 -5.55112e-17
370 1 174.501 196.416 -5.55112e-17
371 2 113.664 135.731 -5.55112e-17
372 1 138.435 178.116 -5.55112e-17
373 2 0.266746 175.092 -5.55112e-17
374 2 83.3459 135.837 -5.55112e-17
375 1 138.523 152.552 -5.55112e-17
376 1 204.946 119.834 -5.55112e-17
377 2 159.4 15.6335 -5.55112e-17
378 2 206.434 94.24 -5.55112e-17
379 2 79.4055 21.1325 -5.55112e-17
380 1 137.375 117.237 -5.55112e-17
381 1 184.823 218.621 -5.55112e-17
382 1 71.7949 122.175 -5.55112e-17
383 1 206.093 214.005 -5.55112e-17
384 2 211.397 116.278 -5.55112e-17
385 1 65.0651 183.69 -5.55112e-17
386 2 1.58184 126.945 -5.55112e-17
387 1 66.3795 33.7878 -5.55112e-17
388 1 92.2577 173.566 -5.55112e-17
389 2 2.78804 47.5015 -5.55112e-17
390 1 96.4961 71.6987 -5.55112e-17
391 1 168.843 142.123 -5.55112e-17
392 2 15.4711 163.511 -5.55112e-17
393 2 4.95006 218.119 -5.55112e-17
394 1 46.1337 206.147 -5.55112e-17
395 1 101.73 90.8837 -5.55112e-17
396 2 206.677 33.4823 -5.55112e-17
397 1 11.2491 104.523 -5.55112e-17
398 2 199.418 209.936 -5.55112e-17
399 2 0.776246 51.9887 -5.55112e-17
400 2 145.127 175.264 -5.55112e-17
401 2 74.6601 194.359 -5.55112e-17
402 1 15.7903 41.0151 -5.55112e-17
403 1 89.4537 44.3927 -5.55112e-17
404 2 18.1051 168.427 -5.55112e-17
405 1 123.654 70.8272 -5.55112e-17
406 2 31.8578 87.9166 -5.55112e-17
407 1 107.08 13.4501 -5.55112e-17
408 1 137.952 130.905 -5.55112e-17
409 2 205.821 203.569 -5.55112e-17
410 2 206.099 187.069 -5.55112e-17
411 1 149.056 210.91 -5.55112e-17
412 1 170.749 199.69 -5.55112e-17
413 1 197.782 9.21547 -5.55112e-17
414 2 142.703 155.449 -5.55112e-17
415 1 196.191 123.166 -5.55112e-17
416 1 200.296 52.9726 -5.55112e-17
417 2 152.146 28.5619 -5.55112e-17
418 2 28.2807 30.4181 -5.55112e-17
419 2 169.295 48.2863 -5.55112e-17
420 2 174.311 134.729 -5.55112e-17
421 1 176.36 174.949 -5.55112e-17
422 1 17.6416 202.899 -5.55112e-17
423 2 185.235 9.52781 -5.55112e-17
424 2 40.4595 165.403 -5.55112e-17
425 2 48.5745 164.656 -5.55112e-17
426 1 99.0067 162.009 -5.55112e-17
427 2 188.241 95.5737 -5.55112e-17
428 1 211.173 14.5604 -5.55112e-17
429 2 67.0862 179.51 -5.55112e-17
430 2 158.144 87.2706 -5.55112e-17
431 1 176.759 57.7321 -5.55112e-17
432 2 17.0351 112.274 -5.55112e-17
433 1 197.255 25.2931 -5.55112e-17
434 1 50.4501 12.4298 -5.55112e-17
435 1 175.253 200.556 -5.55112e-17
436 2 10.4834 202.46 -5.55112e-17
437 2 120.949 140.767 -5.55112e-17
438 2 77.1969 141.299 -5.55112e-17
439 2 67.6984 36.0193 -5.55112e-17
440 2 147.618 155.976 -5.55112e-17
441 1 69.9074 207.453 -5.55112e-17
442 1 68.8479 16.7833 -5.55112e-17
443 2 125.738 55.04 -5.55112e-17
444 1 189.943 62.6318 -5.55112e-17
445 1 140.848 100.179 -5.55112e-17
446 2 74.1632 61.2428 -5.55112e-17
447 2 57.1322 203.554 -5.55112e-17
448 2 64.3984 61.4877 -5.55112e-17
449 1 103.93 125.608 -5.55112e-17
450 1 160.578 67.8644 -5.55112e-17
451 1 167.949 17.6703 -5.55112e-17
452 2 156.743 63.1761 -5.55112e-17
453 1 96.7911 121.801 -5.55112e-17
454 1 2.60535 149.617 -5.55112e-17
455 2 108.066 201.064 -5.55112e-17
456 1 67.0622 194.574 -5.55112e-17
457 2 113.096 64.7445 -5.55112e-17
458 2 11.4205 131.535 -5.55112e-17
459 2 67.7868 64.8568 -5.55112e-17
460 1 47.2622 142.585 -5.55112e-17
461 1 108.439 73.1168 -5.55112e-17
462 1 96.8665 38.3727 -5.55112e-17
463 2 182.244 25.412 -5.55112e-17
464 2 101.144 125.724 -5.55112e-17
465 1 198.445 121.616 -5.55112e-17
466 2 4.41445 65.8875 -5.55112e-17
467 2 152.856 165.035 -5.55112e-17
468 2 2.93531 117.779 -5.55112e-17
469 2 143.462 14.2809 -5.55112e-17
470 2 169.527 160.642 -5.55112e-17
471 2 2.84525 136.31 -5.55112e-17
472 2 13.5681 61.4076 -5.55112e-17
473 2 57.1882 63.0105 -5.55112e-17
474 2 115.169 155.247 -5.55112e-17
475 1 114.353 82.7086 -5.55112e-17
476 2 55.5498 181.112 -5.55112e-17
477 1 149.621 120.098 -5.55112e-17
478 1 172.613 217.19 -5.55112e-17
479 2 56.1075 142.876 -5.55112e-17
480 1 24.1455 95.2984 -5.55112e-17
481 1 183.947 144.531 -5.55112e-17
482 2 141.862 77.1785 -5.55112e-17
483 1 52.4949 198.315 -5.55112e-17
484 1 168.787 155.653 -5.55112e-17
485 2 134.237 92.5947 -5.55112e-17
486 1 124.929 95.1077 -5.55112e-17
487 1 150.257 160.969 -5.55112e-17
488 1 97.6604 30.8882 -5.55112e-17
489 1 204.974 218.505 -5.55112e-17
490 1 174.663 9.30741 -5.55112e-17
491 1 56.5126 178.082 -5.55112e-17
492 2 2.39041 84.1257 -5.55112e-17
493 1 123.867 14.5592 -5.55112e-17
494 2 132.479 135.678 -5.55112e-17
495 1 140.475 176.752 -5.55112e-17
496 1 58.9766 68.3356 -5.55112e-17
497 1 94.1553 114.759 -5.55112e-17
498 2 209.671 112.349 -5.55112e-17
499 2 168.386 74.1061 -5.55112e-17
500 2 108.342 133.172 -5.55112e-17
501 2 194.8 173.112 -5.55112e-17
502 2 211.947 27.3152 -5.55112e-17
503 2 156.556 25.3566 -5.55112e-17
504 2 133.891 141.366 -5.55112e-17
505 2 70.5199 21.954 -5.55112e-17
506 1 110.509 45.5863 -5.55112e-17
507 2 206.752 195.19 -5.55112e-17
508 1 16.309 109.801 -5.55112e-17
509 1 0.805615 31.4288 -5.55112e-17
510 1 33.9382 41.8135 -5.55112e-17
511 2 85.8239 5.70681 -5.55112e-17
512 1 78.7743 177.385 -5.55112e-17
513 2 172.737 154.155 -5.55112e-17
514 2 158.349 125.234 -5.55112e-17
515 1 214.149 136.715 -5.55112e-17
516 2 26.415 190.268 -5.55112e-17
517 1 109.777 23.3919 -5.55112e-17
518 2 115.529 167.924 -5.55112e-17
519 1 206.574 70.1407 -5.55112e-17
520 2 81.836 72.332 -5.55112e-17
521 2 64.267 58.4382 -5.55112e-17
522 1 49.0117 195.574 -5.55112e-17
523 1 84.8702 130.985 -5.55112e-17
524 2 8.06214 151.628 -5.55112e-17
525 2 141.007 39.5595 -5.55112e-17
526 2 155.999 19.9194 -5.55112e-17
527 1 108.069 19.0556 -5.55112e-17
528 1 132.726 1.49055 -5.55112e-17
529 2 153.173 181.605 -5.55112e-17
530 2 134.579 169.526 -5.55112e-17
531 2 49.1409 175.886 -5.55112e-17
532 1 70.5912 153.509 -5.55112e-17
533 2 17.7426 31.7467 -5.55112e-17
534 1 19.5349 71.8012 -5.55112e-17
535 1 69.8134 168.573 -5.55112e-17
536 2 134.962 138.137 -5.55112e-17
537 1 75.2215 159.439 -5.55112e-17
538 1 165.62 60.5851 -5.55112e-17
539 2 45.1514 102.138 -5.55112e-17
540 1 3.51488 165.564 -5.55112e-17
541 1 197.233 69.7623 -5.55112e-17
542 1 19.8844 190.209 -5.55112e-17
543 2 51.7399 87.4756 -5.55112e-17
544 1 38.236 166.556 -5.55112e-17
545 1 4.98562 14.5017 -5.55112e-17
546 2 46.6983 33.4846 -5.55112e-17
547 1 77.1431 214.125 -5.55112e-17
548 1 39.6301 183.884 -5.55112e-17
549 2 175.154 95.9142 -5.55112e-17
550 2 106.355 114.139 -5.55112e-17
551 2 200.801 65.9989 -5.55112e-17
552 1 203.597 33.1027 -5.55112e-17
553 2 19.0457 207.693 -5.55112e-17
554 2 215.259 212.898 -5.55112e-17
555 2 55.4461 184.195 -5.55112e-17
556 1 127.884 87.5272 -5.55112e-17
557 1 53.8059 207.659 -5.55112e-17
558 1 145.454 51.1979 -5.55112e-17
559 2 128.532 199.435 -5.55112e-17
560 2 180.95 158.499 -5.55112e-17
561 2 173.024 87.9638 -5.55112e-17
562 2 141.109 185.939 -5.55112e-17
563 1 191.731 156.1 -5.55112e-17
564 2 185.379 96.9481 -5.55112e-17
565 2 149.146 90.6407 -5.55112e-17
566 2 86.5688 152.802 -5.55112e-17
567 1 212.113 69.6568 -5.55112e-17
568 1 139.46 83.6288 -5.55112e-17
569 2 26.8779 129.901 -5.55112e-17
570 2 27.9614 187.943 -5.55112e-17
571 2 25.9835 23.7902 -5.55112e-17
572 1 161.497 150.184 -5.55112e-17
573 2 144.66 64.9625 -5.55112e-17
574 2 177.095 42.8802 -5.55112e-17
575 1 131.721 51.4973 -5.55112e-17
576 1 74.8892 163.298 -5.55112e-17
577 1 16.3412 206.965 -5.55112e-17
578 1 48.5359 104.801 -5.55112e-17
579 2 58.096 182.698 -5.55112e-17
580 1 98.7888 51.7558 -5.55112e-17
581 1 33.3032 159.408 -5.55112e-17
582 2 78.2417 67.8461 -5.55112e-17
583 2 168.766 184.12 -5.55112e-17
584 2 107.024 22.2442 -5.55112e-17
585 1 79.7898 28.764 -5.55112e-17
586 1 112.221 199.12 -5.55112e-17
587 1 205.937 52.3132 -5.55112e-17
588 2 145.739 218.499 -5.55112e-17
589 1 110.144 194.402 -5.55112e-17
590 2 65.8834 79.8605 -5.55112e-17
591 2 137.174 67.7773 -5.55112e-17
592 1 212.666 24.8151 -5.55112e-17
593 1 40.5235 43.6295 -5.55112e-17
594 1 213.908 56.4734 -5.55112e-17
595 1 52.564 117.971 -5.55112e-17
596 2 29.8735 133.419 -5.55112e-17
597 2 197.042 41.9871 -5.55112e-17
598 2 60.1922 78.1199 -5.55112e-17
599 2 92.7505 112.697 -5.55112e-17
600 2 152.646 124.803 -5.55112e-17
601 1 94.1169 149.55 -5.55112e-17
602 1 29.6669 58.2786 -5.55112e-17
603 2 73.9137 79.9741 -5.55112e-17
604 1 0.516389 156.658 -5.55112e-17
605 2 213.544 82.2619 -5.55112e-17
606 2 65.0665 37.6986 -5.55112e-17
607 2 105.323 158.127 -5.55112e-17
608 2 54.7017 99.8302 -5.55112e-17
609 1 101.886 208.133 -5.55112e-17
610 2 176.681 5.08339 -5.55112e-17
611 1 72.1242 194.676 -5.55112e-17
612 1 207.674 31.1856 -5.55112e-17
613 2 5.01384 167.711 -5.55112e-17
614 1 104.389 212.92 -5.55112e-17
615 1 32.7195 15.3953 -5.55112e-17
616 2 75.76 211.392 -5.55112e-17
617 1 166.331 137.507 -5.55112e-17
618 1 189.618 69.3753 -5.55112e-17
619 1 165.634 116.343 -5.55112e-17
620 2 162.776 176.008 -5.55112e-17
621 2 70.8601 11.614 -5.55112e-17
622 2 165.395 119.449 -5.55112e-17
623 2 21.5636 27.2536 -5.55112e-17
624 1 100.962 163.287 -5.55112e-17
625 2 61.8312 54.6929 -5.55112e-17
626 1 92.6896 62.3181 -5.55112e-17
627 2 57.8631 109.158 -5.55112e-17
628 1 156.443 109.123 -5.55112e-17
629 1 205.123 71.9062 -5.55112e-17
630 2 216.323 52.2182 -5.55112e-17
631 2 212.64 38.8891 -5.55112e-17
632 2 143.715 180.628 -5.55112e-17
633 2 184.625 20.1167 -5.55112e-17
634 2 76.2548 37.98 -5.55112e-17
635 2 193.674 129.771 -5.55112e-17
636 1 35.4816 186.516 -5.55112e-17
637 1 74.8545 218.653 -5.55112e-17
638 1 210.241 134.415 -5.55112e-17
639 2 115.807 57.5304 -5.55112e-17
640 2 57.0327 127.638 -5.55112e-17
641 1 21.7082 67.8229 -5.55112e-17
642 2 85.831 103.684 -5.55112e-17
643 1 144.106 90.831 -5.55112e-17
644 2 135.855 70.6949 -5.55112e-17
645 2 29.209 162.068 -5.55112e-17
646 1 27.3137 132.769 -5.55112e-17
647 2 125.809 85.9618 -5.55112e-17
648 2 151.461 73.2143 -5.55112e-17
649 1 31.4397 105.317 -5.55112e-17
650 1 163.531 165.646 -5.55112e-17
651 1 71.4333 115.237 -5.55112e-17
652 2 189.838 91.005 -5.55112e-17
653 2 211.333 94.0385 -5.55112e-17
654 1 81.2401 125.589 -5.55112e-17
655 1 50.7249 74.825 -5.55112e-17
656 1 178.438 141.132 -5.55112e-17
657 1 170.63 146.927 -5.55112e-17
658 2 3.28286 173.147 -5.55112e-17
659 2 175.148 28.593 -5.55112e-17
660 1 210.264 91.1526 -5.55112e-17
661 2 54.301 116.246 -5.55112e-17
662 2 45.2435 52.2903 -5.55112e-17
663 1 85.19 8.18746 -5.55112e-17
664 1 93.1053 208.693 -5.55112e-17
665 1 17.6753 103.243 -5.55112e-17
666 1 30.5995 205.423 -5.55112e-17
667 1 26.0416 124.814 -5.55112e-17
668 1 124.144 120.31 -5.55112e-17
669 1 90.2719 132.343 -5.55112e-17
670 2 7.67124 175.666 -5.55112e-17
671 1 67.9599 22.1338 -5.55112e-17
672 1 103.58 58.3392 -5.55112e-17
673 2 74.8626 129.881 -5.55112e-17
674 2 39.6487 110.679 -5.55112e-17
675 2 15.7541 38.148 -5.55112e-17
676 1 190.768 158.502 -5.55112e-17
677 2 44.3504 84.8056 -5.55112e-17
678 1 83.3557 80.6853 -5.55112e-17
679 1 147.362 195.172 -5.55112e-17
680 2 159.181 160.639 -5.55112e-17
681 1 197.727 5.11332 -5.55112e-17
682 1 104.089 155.73 -5.55112e-17
683 2 105.354 19.8749 -5.55112e-17
684 1 9.34504 94.3332 -5.55112e-17
685 1 13.0555 136.145 -5.55112e-17
686 1 190.456 103.613 -5.55112e-17
687 1 56.3036 106.541 -5.55112e-17
688 1 217.53 192.363 -5.55112e-17
689 2 182.036 122.175 -5.55112e-17
690 1 156.619 5.61789 -5.55112e-17
691 2 140.645 205.176 -5.55112e-17
692 2 125.741 89.2696 -5.55112e-17
693 1 14.8153 121.646 -5.55112e-17
694 2 103.499 184.311 -5.55112e-17
695 2 149.316 96.0784 -5.55112e-17
696 2 109.661 184.336 -5.55112e-17
697 1 2.7766 167.988 -5.55112e-17
698 2 113.243 187.614 -5.55112e-17
699 1 85.0763 106.097 -5.55112e-17
700 2 18.7749 0.470748 -5.55112e-17
701 2 100.301 113.837 -5.55112e-17
702 1 106.142 46.5035 -5.55112e-17
703 1 28.4694 79.3529 -5.55112e-17
704 1 53.757 61.3186 -5.55112e-17
705 1 96.2059 197.265 -5.55112e-17
706 1 43.1388 198.998 -5.55112e-17
707 1 173.744 74.8757 -5.55112e-17
708 2 150.026 143.127 -5.55112e-17
709 1 7.42304 75.1594 -5.55112e-17
710 2 167.276 52.0346 -5.55112e-17
711 2 92.2343 87.0681 -5.55112e-17
712 1 5.12656 91.6246 -5.55112e-17
713 1 9.47047 79.8072 -5.55112e-17
714 2 143.782 185.341 -5.55112e-17
715 2 97.4792 64.1308 -5.55112e-17
716 1 6.34831 209.943 -5.55112e-17
717 1 164.074 50.2366 -5.55112e-17
718 2 177.526 192.869 -5.55112e-17
719 1 102.944 79.2452 -5.55112e-17
720 2 173.602 203.232 -5.55112e-17
721 2 47.4188 157.264 -5.55112e-17
722 2 95.4983 104.632 -5.55112e-17
723 2 10.384 108.73 -5.55112e-17
724 2 92.8271 2.76883 -5.55112e-17
725 2 172.857 187.188 -5.55112e-17
726 2 55.7166 145.894 -5.55112e-17
727 2 96.9631 85.8376 -5.55112e-17
728 1 138.207 60.5672 -5.55112e-17
729 2 186.45 14.9911 -5.55112e-17
730 2 67.4246 39.3126 -5.55112e-17
731 1 162.18 35.8367 -5.55112e-17
732 2 96.8225 171.657 -5.55112e-17
733 2 97.2687 77.757 -5.55112e-17
734 2 43.838 189.727 -5.55112e-17
735 2 19.4667 83.2094 -5.55112e-17
736 1 105.839 17.3778 -5.55112e-17
737 2 149.614 148.609 -5.55112e-17
738 2 1.31909 187.56 -5.55112e-17
739 2 11.5518 155.384 -5.55112e-17
740 2 202.441 128.211 -5.55112e-17
741 2 111.921 123.178 -5.55112e-17
742 1 59.529 54.1074 -5.55112e-17
743 2 115.524 85.178 -5.55112e-17
744 1 73.0223 192.522 -5.55112e-17
745 2 123.521 87.6011 -5.55112e-17
746 1 10.3297 40.1839 -5.55112e-17
747 1 157.035 210.213 -5.55112e-17
748 2 171.621 208.679 -5.55112e-17
749 1 70.6613 35.4733 -5.55112e-17
750 1 165.005 174.628 -5.55112e-17
751 1 24.8681 200.634 -5.55112e-17
752 2 157.554 105.803 -5.55112e-17
753 1 48.5374 159.883 -5.55112e-17
754 2 121.254 9.32802 -5.55112e-17
755 1 16.0389 198.762 -5.55112e-17
756 2 98.4871 204.66 -5.55112e-17
757 1 165.455 84.5117 -5.55112e-17
758 2 186.368 157.918 -5.55112e-17
759 1 115.651 44.1227 -5.55112e-17
760 1 182.697 169.893 -5.55112e-17
761 2 90.5896 28.6796 -5.55112e-17
762 1 206.983 179.467 -5.55112e-17
763 2 163.772 56.0102 -5.55112e-17
764 2 190.517 51.2468 -5.55112e-17
765 1 57.5554 95.6919 -5.55112e-17
766 2 42.6767 26.8448 -5.55112e-17
767 2 96.0677 212.341 -5.55112e-17
768 2 33.2945 172.202 -5.55112e-17
769 2 180.816 15.8934 -5.55112e-17
770 1 100.834 183.614 -5.55112e-17
771 1 101.62 77.0094 -5.55112e-17
772 1 102.677 199.601 -5.55112e-17
773 2 80.4344 160.211 -5.55112e-17
774 1 154.31 64.5237 -5.55112e-17
775 1 215.139 187.463 -5.55112e-17
776 2 25.457 198.048 -5.55112e-17
777 2 151.865 168.186 -5.55112e-17
778 1 21.6798 214.77 -5.55112e-17
779 1 0.0350585 150.399 -5.55112e-17
780 2 213.051 91.9275 -5.55112e-17
781 1 65.4977 181.431 -5.55112e-17
782 2 159.04 80.3817 -5.55112e-17
783 1 202.901 161.483 -5.55112e-17
784 2 104.993 63.5104 -5.55112e-17
785 1 217.86 155.127 -5.55112e-17
786 1 167.139 159.695 -5.55112e-17
787 2 207.205 165.357 -5.55112e-17
788 2 210.183 3.189 -5.55112e-17
789 2 76.3976 154.078 -5.55112e-17
790 2 0.329123 41.973 -5.55112e-17
791 2 136.249 158.38 -5.55112e-17
792 1 132.613 171.309 -5.55112e-17
793 1 163.686 6.89703 -5.55112e-17
794 2 11.3639 214.331 -5.55112e-17
795 2 59.8644 117.721 -5.55112e-17
796 1 86.6294 34.9317 -5.55112e-17
797 1 147.249 8.71026 -5.55112e-17
798 1 87.2633 71.2867 -5.55112e-17
799 2 150.167 172.621 -5.55112e-17
800 1 15.3135 174.142 -5.55112e-17
801 2 154.705 95.4637 -5.55112e-17
802 1 68.2224 154.213 -5.55112e-17
803 1 29.4869 185.656 -5.55112e-17
804 1 26.0749 205.743 -5.55112e-17
805 2 127.708 113.385 -5.55112e-17
806 2 24.8917 175.541 -5.55112e-17
807 2 157.857 90.1645 -5.55112e-17
808 2 102.432 128.19 -5.55112e-17
809 1 125.16 100.414 -5.55112e-17
810 2 187.953 103.412 -5.55112e-17
811 2 194.718 142.502 -5.55112e-17
812 1 134.584 189.2 -5.55112e-17
813 1 51.4569 68.8041 -5.55112e-17
814 1 148.138 141.311 -5.55112e-17
815 1 199.437 200.015 -5.55112e-17
816 1 87.9829 134.574 -5.55112e-17
817 2 193.319 107.376 -5.55112e-17
818 2 45.5144 25.674 -5.55112e-17
819 2 201.046 133.38 -5.55112e-17
820 1 165.807 12.832 -5.55112e-17
821 1 116.329 218.142 -5.55112e-17
822 2 129.867 130.743 -5.55112e-17
823 1 26.8639 173.993 -5.55112e-17
824 1 183.126 98.1861 -5.55112e-17
825 1 206.907 147.933 -5.55112e-17
826 2 132.107 165.238 -5.55112e-17
827 2 0.901837 5.49299 -5.55112e-17
828 1 169.603 116.331 -5.55112e-17
829 2 123.575 160.874 -5.55112e-17
830 1 21.0147 70.0815 -5.55112e-17
831 2 70.6505 43.2291 -5.55112e-17
832 2 7.29219 93.1434 -5.55112e-17
833 2 25.5799 42.5267 -5.55112e-17
834 1 188.464 180.609 -5.55112e-17
835 1 155.135 169.884 -5.55112e-17
836 1 118.74 138.683 -5.55112e-17
837 2 14.5355 208.773 -5.55112e-17
838 2 89.6607 113.552 -5.55112e-17
839 1 159.08 139.114 -5.55112e-17
840 2 48.9746 155.227 -5.55112e-17
841 2 175.688 53.5921 -5.55112e-17
842 1 73.5482 77.5748 -5.55112e-17
843 1 40.3246 21.6035 -5.55112e-17
844 2 115.543 130.444 -5.55112e-17
845 1 43.7144 23.8634 -5.55112e-17
846 2 128.346 5.45197 -5.55112e-17
847 1 180.476 174.554 -5.55112e-17
848 2 161.033 1.93531 -5.55112e-17
849 1 127.048 101.827 -5.55112e-17
850 2 106.148 93.8961 -5.55112e-17
851 2 91.6744 107.666 -5.55112e-17
852 1 75.7413 145.618 -5.55112e-17
853 1 50.842 95.8952 -5.55112e-17
854 2 73.5566 21.3183 -5.55112e-17
855 2 0.932243 20.6786 -5.55112e-17