ITEM: TIMESTEP
0
ITEM: NUMBER OF ATOMS
7200
ITEM: BOX BOUNDS xy xz yz pp pp pp
0.0000000000000000e+00 2.1900000000000000e+02 0.0000000000000000e+00
0.0000000000000000e+00 2.1900000000000000e+02 0.0000000000000000e+00
-3.6499999999999999e-01 3.6499999999999999e-01 0.0000000000000000e+00
ITEM: ATOMS id type x y z
1 1 173.078 27.7382 -5.55112e-17
2 2 206.37 12.3857 -5.55112e-17
3 2 121.778 176.841 -5.55112e-17
4 1 126.958 110.28 -5.55112e-17
5 1 90.5852 112.037 -5.55112e-17
6 1 143.953 211.503 -5.55112e-17
7 2 174.132 157.919 -5.55112e-17
8 2 98.2425 212.082 -5.55112e-17
9 1 12.3749 213.025 -5.55112e-17
10 2 39.8888 196.781 -5.55112e-17
11 2 201.068 106.078 -5.55112e-17
12 1 46.6423 207.8 -5.55112e-17
13 2 195.878 76.0345 -5.55112e-17
14 1 55.8703 175.983 -5.55112e-17
15 2 197.768 7.80806 -5.55112e-17
16 2 206.198 111.797 -5.55112e-17
17 1 48.3198 45.1207 -5.55112e-17
18 2 18.9751 171.711 -5.55112e-17
19 1 73.9284 115.76 -5.55112e-17
20 1 132.354 16.2365 -5.55112e-17
21 1 154.23 138.863 -5.55112e-17
22 2 32.6377 20.4074 -5.55112e-17
23 2 25.2109 205.927 -5.55112e-17
24 2 18.0842 136.556 -5.55112e-17
25 2 215.462 196.756 -5.55112e-17
26 2 108.709 200.477 -5.55112e-17
27 1 6.48628 165.442 -5.55112e-17
28 2 37.3091 152.166 -5.55112e-17
29 2 102.504 40.3968 -5.55112e-17
30 2 118.984 66.4254 -5.55112e-17
31 2 160.201 83.3485 -5.55112e-17
32 1 79.7146 115.058 -5.55112e-17
33 2 151.008 85.9918 -5.55112e-17
34 2 48.4393 113.866 -5.55112e-17
35 2 72.4066 43.1694 -5.55112e-17
36 1 177.495 131.348 -5.55112e-17
37 1 154.87 165.781 -5.55112e-17
38 2 2.43622 162.227 -5.55112e-17
39 1 2.1108 68.7659 -5.55112e-17
40 2 176.31 107.955 -5.55112e-17
41 1 183.648 51.4728 -5.55112e-17
42 1 71.3185 19.9937 -5.55112e-17
43 1 174.268 151.782 -5.55112e-17
44 1 167.628 144.971 -5.55112e-17
45 2 113.03 56.922 -5.55112e-17
46 1 113.819 186.315 -5.55112e-17
47 2 174.357 21.0677 -5.55112e-17
48 2 197.585 118.361 -5.55112e-17
49 1 193.835 11.2156 -5.55112e-17
50 2 44.1699 78.1645 -5.55112e-17
51 1 169.788 216.472 -5.55112e-17
52 1 123.444 52.7206 -5.55112e-17
53 2 93.3119 184.833 -5.55112e-17
54 1 32.6628 17.7872 -5.55112e-17
55 2 60.6215 131.519 -5.55112e-17
56 1 32.5704 129.775 -5.55112e-17
57 2 11.9208 117.855 -5.55112e-17
58 1 188.702 29.0997 -5.55112e-17
59 1 160.766 85.9274 -5.55112e-17
60 2 200.091 74.4059 -5.55112e-17
61 1 152.735 155.614 -5.55112e-17
62 1 91.1212 109.559 -5.55112e-17
63 2 79.4761 194.109 -5.55112e-17
64 1 18.44 42.6068 -5.55112e-17
65 2 192.052 119.978 -5.55112e-17
66 2 19.4424 149.237 -5.55112e-17
67 2 190.679 82.353 -5.55112e-17
68 1 143.637 83.8394 -5.55112e-17
69 2 145.622 169.318 -5.55112e-17
70 1 145.435 98.9979 -5.55112e-17
71 1 181.246 117.201 -5.55112e-17
72 2 24.9842 160.873 -5.55112e-17
73 2 4.61212 181.545 -5.55112e-17
74 2 130.534 14.3001 -5.55112e-17
75 1 59.8217 111.079 -5.55112e-17
76 2 153.328 182.903 -5.55112e-17
77 2 190.702 190.563 -5.55112e-17
78 1 111.526 162.856 -5.55112e-17
79 2 41.269 53.5042 -5.55112e-17
80 1 32.446 70.9402 -5.55112e-17
81 1 168.98 172.122 -5.55112e-17
82 1 177.055 67.8442 -5.55112e-17
83 1 69.9086 42.1437 -5.55112e-17
84 2 139.92 214.851 -5.55112e-17
85 2 165.927 172.177 -5.55112e-17
86 2 31.2229 50.921 -5.55112e-17
87 2 16.7424 125.588 -5.55112e-17
88 1 91.8479 149.747 -5.55112e-17
89 2 152.617 131.44 -5.55112e-17
90 2 144.312 53.7335 -5.55112e-17
91 2 36.5722 205.492 -5.55112e-17
92 1 11.7184 2.06947 -5.55112e-17
93 2 100.402 152.636 -5.55112e-17
94 2 165.244 124.164 -5.55112e-17
95 1 200.09 35.8697 -5.55112e-17
96 2 20.3361 74.6226 -5.55112e-17
97 2 210.98 9.69572 -5.55112e-17
98 2 24.7115 14.011 -5.55112e-17
99 1 89.5427 37.3131 -5.55112e-17
100 2 179.035 15.1817 -5.55112e-17
101 1 182.751 152.894 -5.55112e-17
102 1 63.1252 169.71 -5.55112e-17
103 2 216.028 123.609 -5.55112e-17
104 2 35.096 47.0273 -5.55112e-17
105 1 173.281 10.7355 -5.55112e-17
106 1 193.017 75.6404 -5.55112e-17
107 1 184.028 124.49 -5.55112e-17
108 1 70.6657 217.007 -5.55112e-17
109 2 44.0784 46.9177 -5.55112e-17
110 2 142.736 218.949 -5.55112e-17
111 1 30.1353 96.9751 -5.55112e-17
112 2 215.729 90.3714 -5.55112e-17
113 1 135.167 26.8474 -5.55112e-17
114 1 68.0229 103.452 -5.55112e-17
115 2 22.4669 82.7148 -5.55112e-17
116 2 145.701 15.8273 -5.55112e-17
117 1 143.343 128.638 -5.55112e-17
118 1 107.185 101.713 -5.55112e-17
119 2 84.1204 130.4 -5.55112e-17
120 2 178.234 72.7679 -5.55112e-17
121 1 10.4568 141.242 -5.55112e-17
122 2 170.61 145.192 -5.55112e-17
123 2 21.5679 155.233 -5.55112e-17
124 1 130.619 198.763 -5.55112e-17
125 1 134.606 152.447 -5.55112e-17
126 2 90.3558 45.7556 -5.55112e-17
127 2 19.6922 60.8881 -5.55112e-17
128 1 125.615 105.041 -5.55112e-17
129 1 145.996 157.443 -5.55112e-17
130 2 148.789 191.53 -5.55112e-17
131 1 140.905 57.6713 -5.55112e-17
132 1 140.144 197.584 -5.55112e-17
133 1 217.369 108.597 -5.55112e-17
134 1 87.1767 171.761 -5.55112e-17
135 2 190.926 70.2868 -5.55112e-17
136 1 166.163 126.555 -5.55112e-17
137 1 87.6285 10.6355 -5.55112e-17
138 2 151.433 121.65 -5.55112e-17
139 1 127.756 18.8394 -5.55112e-17
140 1 158.234 175.901 -5.55112e-17
141 1 38.1574 35.9134 -5.55112e-17
142 1 212.77 2.82052 -5.55112e-17
143 1 21.6329 34.9896 -5.55112e-17
144 1 15.06 89.1775 -5.55112e-17
145 2 202.554 54.7101 -5.55112e-17
146 1 217.993 118.194 -5.55112e-17
147 2 16.0383 91.6973 -5.55112e-17
148 1 8.09755 71.9563 -5.55112e-17
149 1 200.784 150.561 -5.55112e-17
150 2 74.7446 60.7127 -5.55112e-17
151 1 116.559 114.636 -5.55112e-17
152 1 211.39 177.811 -5.55112e-17
153 2 101.692 129.649 -5.55112e-17
154 1 176.973 36.3087 -5.55112e-17
155 2 204.904 68.1766 -5.55112e-17
156 2 109.827 168.381 -5.55112e-17
157 2 178.081 218.63 -5.55112e-17
158 2 53.9996 1.27284 -5.55112e-17
159 2 32.5256 148.314 -5.55112e-17
160 2 40.2014 61.5723 -5.55112e-17
161 2 113.791 119.621 -5.55112e-17
162 1 213.576 80.6879 -5.55112e-17
163 1 41.1651 70.6902 -5.55112e-17
164 2 109.985 144.99 -5.55112e-17
165 1 6.92556 74.0168 -5.55112e-17
166 2 11.109 206.706 -5.55112e-17
167 1 103.163 182.197 -5.55112e-17
168 1 183.2 198.345 -5.55112e-17
169 2 42.8632 186.196 -5.55112e-17
170 1 98.8081 218.915 -5.55112e-17
171 1 140.94 92.0688 -5.55112e-17
172 1 12.7094 186.945 -5.55112e-17
173 1 82.5711 152.197 -5.55112e-17
174 2 29.7319 187.759 -5.55112e-17
175 2 114.111 36.3722 -5.55112e-17
176 1 104.544 158.658 -5.55112e-17
177 2 117.492 7.53826 -5.55112e-17
178 1 25.1297 23.5542 -5.55112e-17
179 2 122.254 4.42198 -5.55112e-17
180 1 30.2376 118.478 -5.55112e-17
181 1 6.7013 125.568 -5.55112e-17
182 1 106.635 130.718 -5.55112e-17
183 1 39.674 151.398 -5.55112e-17
184 2 181.071 212.306 -5.55112e-17
185 2 195.335 92.8071 -5.55112e-17
186 2 87.8511 197.019 -5.55112e-17
187 2 125.436 188.52 -5.55112e-17
188 2 29.6344 4.43349 -5.55112e-17
189 1 180.182 40.1804 -5.55112e-17
190 1 132.724 49.4477 -5.55112e-17
191 2 13.0506 91.0297 -5.55112e-17
192 2 69.147 39.6461 -5.55112e-17
193 1 151.184 177.208 -5.55112e-17
194 1 38.9304 43.7731 -5.55112e-17
195 2 74.3351 109.848 -5.55112e-17
196 1 9.63328 208.799 -5.55112e-17
197 2 98.1705 82.4253 -5.55112e-17
198 2 190.915 47.7912 -5.55112e-17
199 2 85.0927 150.719 -5.55112e-17
200 2 50.3789 51.756 -5.55112e-17
201 2 131.262 133.79 -5.55112e-17
202 1 125.99 38.3423 -5.55112e-17
203 1 31.799 41.0773 -5.55112e-17
204 2 42.1168 85.3004 -5.55112e-17
205 2 11.2505 191.612 -5.55112e-17
206 2 187.216 157.822 -5.55112e-17
207 1 40.5441 199.382 -5.55112e-17
208 2 136.988 33.6389 -5.55112e-17
209 2 12.7898 149.802 -5.55112e-17
210 1 34.1706 90.2454 -5.55112e-17
211 1 200.327 56.5207 -5.55112e-17
212 1 47.4275 78.5509 -5.55112e-17
213 1 132.819 123.936 -5.55112e-17
214 2 7.91193 21.4098 -5.55112e-17
215 1 37.9669 178.356 -5.55112e-17
216 1 91.7208 3.71107 -5.55112e-17
217 1 182.118 24.4602 -5.55112e-17
218 2 203.711 154.976 -5.55112e-17
219 2 151.977 179.997 -5.55112e-17
220 1 125.712 8.65689 -5.55112e-17
221 2 46.0704 50.9948 -5.55112e-17
222 1 177.027 118.02 -5.55112e-17
223 1 206.888 121.247 -5.55112e-17
224 2 139.5 75.135 -5.55112e-17
225 2 113.985 161.798 -5.55112e-17
226 1 203.946 11.6785 -5.55112e-17
227 2 2.93773 217.186 -5.55112e-17
228 2 74.5452 76.1541 -5.55112e-17
229 1 8.81416 14.2091 -5.55112e-17
230 1 39.4301 85.0025 -5.55112e-17
231 2 176.028 144.968 -5.55112e-17
232 1 16.9482 14.488 -5.55112e-17
233 2 56.2274 218.089 -5.55112e-17
234 1 169.396 39.0623 -5.55112e-17
235 1 162.784 100.719 -5.55112e-17
236 2 145.783 24.5518 -5.55112e-17
237 2 100.284 165.15 -5.55112e-17
238 2 85.4499 115.334 -5.55112e-17
239 1 51.9266 201.557 -5.55112e-17
240 1 132.852 87.5229 -5.55112e-17
241 2 208.178 142.8 -5.55112e-17
242 1 157.153 37.5666 -5.55112e-17
243 2 196.342 172.316 -5.55112e-17
244 2 16.595 9.33178 -5.55112e-17
245 1 191.52 209.442 -5.55112e-17
246 2 115.528 105.464 -5.55112e-17
247 2 143.705 138.263 -5.55112e-17
248 1 57.6797 9.23523 -5.55112e-17
249 1 135.532 108.042 -5.55112e-17
250 1 155.748 45.889 -5.55112e-17
251 2 118.226 73.6167 -5.55112e-17
252 1 112.668 154.59 -5.55112e-17
253 2 74.5247 118.267 -5.55112e-17
254 2 208.502 202.43 -5.55112e-17
255 2 126.144 74.0481 -5.55112e-17
256 1 42.7846 204.506 -5.55112e-17
257 2 47.9202 195.335 -5.55112e-17
258 1 1.39471 83.0704 -5.55112e-17
259 2 179.096 135.549 -5.55112e-17
260 1 29.1876 153.227 -5.55112e-17
261 2 146.521 164.716 -5.55112e-17
262 2 189.525 108.362 -5.55112e-17
263 2 88.4094 169.202 -5.55112e-17
264 1 147.198 75.3744 -5.55112e-17
265 1 127.096 210.177 -5.55112e-17
266 1 35.3901 187.562 -5.55112e-17
267 2 100.544 200.446 -5.55112e-17
268 1 20.4102 66.464 -5.55112e-17
269 2 26.1035 120.822 -5.55112e-17
270 2 217.069 186.974 -5.55112e-17
271 2 191.571 85.2608 -5.55112e-17
272 1 105.928 217 -5.55112e-17
273 1 46.5256 99.3391 -5.55112e-17
274 1 0.801936 197.887 -5.55112e-17
275 1 145.136 117.789 -5.55112e-17
276 1 200.477 81.0386 -5.55112e-17
277 1 98.132 17.8467 -5.55112e-17
278 2 78.5316 155.646 -5.55112e-17
279 2 163.314 86.3629 -5.55112e-17
280 1 125.121 214.356 -5.55112e-17
281 2 117.492 129.694 -5.55112e-17
282 2 60.1935 144.365 -5.55112e-17
283 2 8.58895 150.683 -5.55112e-17
284 1 130.213 113.759 -5.55112e-17
285 1 42.0275 183.707 -5.55112e-17
286 2 33.6512 210.871 -5.55112e-17
287 2 105.821 73.799 -5.55112e-17
288 1 66.84 96.2266 -5.55112e-17
289 2 170.533 41.5848 -5.55112e-17
290 1 130.541 54.1937 -5.55112e-17
291 2 144.045 181.295 -5.55112e-17
292 1 90.0451 97.0237 -5.55112e-17
293 1 150.485 119.5 -5.55112e-17
294 1 31.3666 181.702 -5.55112e-17
295 2 45.7179 143.407 -5.55112e-17
296 1 162.434 175.574 -5.55112e-17
297 1 218.965 31.0652 -5.55112e-17
298 2 209.41 123.432 -5.55112e-17
299 1 179.928 62.4314 -5.55112e-17
300 2 161.628 191.76 -5.55112e-17
301 2 192.422 206.865 -5.55112e-17
302 2 166.663 89.5508 -5.55112e-17
303 1 43.7272 151.051 -5.55112e-17
304 1 127.995 105.826 -5.55112e-17
305 1 93.9973 162.955 -5.55112e-17
306 2 61.4909 218.26 -5.55112e-17
307 2 137.562 152.28 -5.55112e-17
308 2 143.229 206.442 -5.55112e-17
309 1 113.609 69.0465 -5.55112e-17
310 1 183.258 148.259 -5.55112e-17
311 1 151.589 112.741 -5.55112e-17
312 2 67.1529 33.4576 -5.55112e-17
313 2 192.564 37.292 -5.55112e-17
314 1 155.406 108.233 -5.55112e-17
315 2 46.8612 104.371 -5.55112e-17
316 1 105.447 12.0292 -5.55112e-17
317 1 125.295 185.218 -5.55112e-17
318 1 208.987 169.489 -5.55112e-17
319 2 110.364 198.087 -5.55112e-17
320 1 196.227 53.4107 -5.55112e-17
321 1 12.338 74.2932 -5.55112e-17
322 1 46.5552 134.197 -5.55112e-17
323 2 51.2061 160.313 -5.55112e-17
324 2 24.617 88.3066 -5.55112e-17
325 2 213.228 26.9494 -5.55112e-17
326 1 181.096 19.2945 -5.55112e-17
327 1 16.3186 51.5818 -5.55112e-17
328 2 19.5443 14.3919 -5.55112e-17
329 2 63.05 102.759 -5.55112e-17
330 2 121.014 72.316 -5.55112e-17
331 2 171.833 38.7777 -5.55112e-17
332 2 125.944 114.704 -5.55112e-17
333 2 22.538 134.461 -5.55112e-17
334 2 213.598 31.3536 -5.55112e-17
335 1 159.717 186.7 -5.55112e-17
336 2 19.4056 134.282 -5.55112e-17
337 2 89.6411 2.02626 -5.55112e-17
338 1 188.655 113.06 -5.55112e-17
339 2 38.6425 170.071 -5.55112e-17
340 2 191.957 182.152 -5.55112e-17
341 2 104.364 101.917 -5.55112e-17
342 2 146.115 141.007 -5.55112e-17
343 2 206.978 204.806 -5.55112e-17
344 1 115.796 103.068 -5.55112e-17
345 2 43.4899 209.137 -5.55112e-17
346 2 59.7096 59.775 -5.55112e-17
347 1 159.337 97.4109 -5.55112e-17
348 1 184.281 207.82 -5.55112e-17
349 2 173.704 74.0561 -5.55112e-17
350 2 41.1095 174.97 -5.55112e-17
351 1 193.545 70.8929 -5.55112e-17
352 1 3.4297 164.637 -5.55112e-17
353 2 151.905 104.904 -5.55112e-17
354 2 200.332 201.647 -5.55112e-17
355 1 8.05437 163.404 -5.55112e-17
356 2 131.7 211.821 -5.55112e-17
357 1 97.3741 187.376 -5.55112e-17
358 1 131.049 58.4086 -5.55112e-17
359 1 215.899 134.05 -5.55112e-17
360 1 18.6708 4.34881 -5.55112e-17
361 2 202.83 42.5585 -5.55112e-17
362 2 189.573 100.828 -5.55112e-17
363 1 126.285 218.432 -5.55112e-17
364 2 16.728 48.8152 -5.55112e-17
365 1 13.5962 167.796 -5.55112e-17
366 1 75.5423 206.002 -5.55112e-17
367 1 192.624 68.3491 -5.55112e-17
368 1 27.4011 167.5 -5.55112e-17
369 2 77.777 130.024 -5.55112e-17
370 1 202.747 97.3082 -5.55112e-17
371 2 49.4353 105.564 -5.55112e-17
372 1 88.896 216.031 -5.55112e-17
373 2 92.8046 201.656 -5.55112e-17
374 2 192.003 99.2903 -5.55112e-17
375 1 66.3182 66.907 -5.55112e-17
376 1 107.016 154.654 -5.55112e-17
377 2 68.8289 36.2475 -5.55112e-17
378 2 172.257 131.336 -5.55112e-17
379 2 185.204 199.805 -5.55112e-17
380 1 165.555 36.5055 -5.55112e-17
381 1 171.709 214.699 -5.55112e-17
382 1 143.449 71.5808 -5.55112e-17
383 1 80.3353 49.6316 -5.55112e-17
384 2 23.3019 99.0824 -5.55112e-17
385 1 9.36095 83.1015 -5.55112e-17
386 2 163.266 173.193 -5.55112e-17
387 1 28.9922 94.935 -5.55112e-17
388 1 155.378 151.244 -5.55112e-17
389 2 163.459 93.5552 -5.55112e-17
390 1 116.664 17.8105 -5.55112e-17
391 1 204.554 17.1112 -5.55112e-17
392 2 43.5787 107.307 -5.55112e-17
393 2 0.826475 208.281 -5.55112e-17
394 1 5.94487 187.477 -5.55112e-17
395 1 24.946 216.124 -5.55112e-17
396 2 88.5206 88.7659 -5.55112e-17
397 1 29.9268 25.4913 -5.55112e-17
398 2 145.464 127.158 -5.55112e-17
399 2 193.127 88.1685 -5.55112e-17
400 2 83.745 62.6284 -5.55112e-17
401 2 72.7017 160.617 -5.55112e-17
402 1 59.5318 213.88 -5.55112e-17
403 1 16.3437 119.662 -5.55112e-17
404 2 127.04 28.3184 -5.55112e-17
405 1 108.937 158.848 -5.55112e-17
406 2 206.369 123.886 -5.55112e-17
407 1 123.959 72.5288 -5.55112e-17
408 1 168.394 28.789 -5.55112e-17
409 2 213.389 143.856 -5.55112e-17
410 2 59.8757 119.13 -5.55112e-17
411 1 140.413 96.761 -5.55112e-17
412 1 155.595 17.5228 -5.55112e-17
413 1 25.7631 68.5573 -5.55112e-17
414 2 177.942 210.412 -5.55112e-17
415 1 95.7344 83.0412 -5.55112e-17
416 1 143.362 28.5242 -5.55112e-17
417 2 111.946 140.982 -5.55112e-17
418 2 45.7644 177.784 -5.55112e-17
419 2 206.177 133.733 -5.55112e-17
420 2 107.061 96.5398 -5.55112e-17
421 1 76.7625 65.9976 -5.55112e-17
422 1 40.8123 107.598 -5.55112e-17
423 2 128.76 164.94 -5.55112e-17
424 2 12.3317 28.3567 -5.55112e-17
425 2 114.086 137.232 -5.55112e-17
426 1 207.892 115.977 -5.55112e-17
427 2 77.6764 68.2656 -5.55112e-17
428 1 33.382 178.091 -5.55112e-17
429 2 190.848 114.839 -5.55112e-17
430 2 120.857 106.617 -5.55112e-17
431 1 10.4795 21.2817 -5.55112e-17
432 2 167.751 54.0168 -5.55112e-17
433 1 135.18 195.707 -5.55112e-17
434 1 214.544 180.834 -5.55112e-17
435 1 152.864 84.2645 -5.55112e-17
436 2 39.7903 8.94561 -5.55112e-17
437 2 180.621 58.2606 -5.55112e-17
438 2 192.05 159.453 -5.55112e-17
439 2 113.028 1.32323 -5.55112e-17
440 2 63.454 115.887 -5.55112e-17
441 1 124.979 152.985 -5.55112e-17
442 1 50.4118 123.768 -5.55112e-17
443 2 60.0021 51.9039 -5.55112e-17
444 1 197.015 85.2888 -5.55112e-17
445 1 192.597 188.789 -5.55112e-17
446 2 151.506 158.065 -5.55112e-17
447 2 46.105 30.4085 -5.55112e-17
448 2 165.212 187.246 -5.55112e-17
449 1 106.153 200.82 -5.55112e-17
450 1 215.29 109.371 -5.55112e-17
451 1 69.6029 209.992 -5.55112e-17
452 2 179.574 55.3612 -5.55112e-17
453 1 6.36874 152.467 -5.55112e-17
454 1 195.287 64.5198 -5.55112e-17
455 2 61.0254 134.573 -5.55112e-17
456 1 105.024 165.721 -5.55112e-17
457 2 169.11 126.719 -5.55112e-17
458 2 161.61 142.246 -5.55112e-17
459 2 155.68 59.5976 -5.55112e-17
460 1 215.801 193.941 -5.55112e-17
461 1 96.6131 208.002 -5.55112e-17
462 1 67.7546 179.474 -5.55112e-17
463 2 105.33 198.353 -5.55112e-17
464 2 31.3072 34.4352 -5.55112e-17
465 1 144.756 36.3348 -5.55112e-17
466 2 204.781 129.309 -5.55112e-17
467 2 57.0734 148.739 -5.55112e-17
468 2 194.009 115.852 -5.55112e-17
469 2 33.3326 80.3894 -5.55112e-17
470 2 191.741 156.073 -5.55112e-17
471 2 192.366 193.609 -5.55112e-17
472 2 107.326 31.9575 -5.55112e-17
473 2 190.294 14.7316 -5.55112e-17
474 2 85.527 133.552 -5.55112e-17
475 1 110.079 188.743 -5.55112e-17
476 2 159.353 49.5286 -5.55112e-17
477 1 1.88246 210.654 -5.55112e-17
478 1 28.9058 199.929 -5.55112e-17
479 2 61.6508 7.55199 -5.55112e-17
480 1 57.9957 72.3799 -5.55112e-17
481 1 39.9324 177.231 -5.55112e-17
482 2 168.491 190.626 -5.55112e-17
483 1 134.591 193.688 -5.55112e-17
484 1 53.2398 134.21 -5.55112e-17
485 2 17.1813 186.873 -5.55112e-17
486 1 32.3688 48.6392 -5.55112e-17
487 1 50.6855 5.12314 -5.55112e-17
488 1 39.1477 75.1774 -5.55112e-17
489 1 87.8339 107.938 -5.55112e-17
490 1 168.529 73.4426 -5.55112e-17
491 1 166.861 75.4492 -5.55112e-17
492 2 206.466 29.4258 -5.55112e-17
493 1 80.1024 44.6738 -5.55112e-17
494 2 99.0325 53.1555 -5.55112e-17
495 1 152.778 90.9479 -5.55112e-17
496 1 40.8403 124.009 -5.55112e-17
497 1 140.952 109.646 -5.55112e-17
498 2 157.161 218.284 -5.55112e-17
499 2 122.725 212.963 -5.55112e-17
500 2 109.183 24.3537 -5.55112e-17
501 2 1.68261 143.576 -5.55112e-17
502 2 156.535 140.45 -5.55112e-17
503 2 64.6601 40.3694 -5.55112e-17
504 2 75.1934 47.4657 -5.55112e-17
505 2 85.0397 170.197 -5.55112e-17
506 1 173.787 6.43562 -5.55112e-17
507 2 63.1414 197.69 -5.55112e-17
508 1 104.623 54.3089 -5.55112e-17
509 1 196.053 29.5377 -5.55112e-17
510 1 188.13 82.2469 -5.55112e-17
511 2 77.1491 167.77 -5.55112e-17
512 1 55.7214 55.694 -5.55112e-17
513 2 90.453 218.199 -5.55112e-17
514 2 211.409 85.9551 -5.55112e-17
515 1 67.1101 75.5306 -5.55112e-17
516 2 83.1115 71.2097 -5.55112e-17
517 1 17.1294 158.574 -5.55112e-17
518 2 6.26063 23.348 -5.55112e-17
519 1 125.082 88.8 -5.55112e-17
520 2 32.1278 76.4315 -5.55112e-17
521 2 162.689 7.75827 -5.55112e-17
522 1 198.632 13.4678 -5.55112e-17
523 1 131.693 99.2256 -5.55112e-17
524 2 198.562 42.3128 -5.55112e-17
525 2 154.208 28.9912 -5.55112e-17
526 2 104.002 25.1818 -5.55112e-17
527 1 173.048 182.021 -5.55112e-17
528 1 208.669 214.77 -5.55112e-17
529 2 71.141 188.781 -5.55112e-17
530 2 208.845 47.2776 -5.55112e-17
531 2 135.973 154.733 -5.55112e-17
532 1 65.3666 43.2811 -5.55112e-17
533 2 27.3411 185.217 -5.55112e-17
534 1 25.5588 163.528 -5.55112e-17
535 1 176.544 208.09 -5.55112e-17
536 2 17.8056 176.184 -5.55112e-17
537 1 127.979 69.3661 -5.55112e-17
538 1 68.0488 182.296 -5.55112e-17
539 2 75.1834 175.345 -5.55112e-17
540 1 18.9518 208.184 -5.55112e-17
541 1 111.574 135.897 -5.55112e-17
542 1 26.3707 90.2423 -5.55112e-17
543 2 130.541 171.472 -5.55112e-17
544 1 13.5831 192.509 -5.55112e-17
545 1 168.759 66.1317 -5.55112e-17
546 2 183.127 11.3227 -5.55112e-17
547 1 55.9777 81.796 -5.55112e-17
548 1 47.4636 15.0908 -5.55112e-17
549 2 39.3782 147.349 -5.55112e-17
550 2 215.852 211.892 -5.55112e-17
551 2 27.4794 58.521 -5.55112e-17
552 1 13.1279 64.2304 -5.55112e-17
553 2 218.348 195.606 -5.55112e-17
554 2 167.771 218.16 -5.55112e-17
555 2 179.938 167.947 -5.55112e-17
556 1 180.335 214.894 -5.55112e-17
557 1 3.22413 59.684 -5.55112e-17
558 1 52.3947 131.566 -5.55112e-17
559 2 114.786 128.899 -5.55112e-17
560 2 67.8647 82.6801 -5.55112e-17
561 2 113.37 173.931 -5.55112e-17
562 2 81.7133 54.6901 -5.55112e-17
563 1 61.7711 139.592 -5.55112e-17
564 2 71.6514 68.7577 -5.55112e-17
565 2 205.223 60.1345 -5.55112e-17
566 2 54.3472 105.77 -5.55112e-17
567 1 124.864 216.674 -5.55112e-17
568 1 58.8541 74.824 -5.55112e-17
569 2 166.556 166.931 -5.55112e-17
570 2 14.1851 35.8749 -5.55112e-17
571 2 203.417 63.0151 -5.55112e-17
572 1 98.0175 113.625 -5.55112e-17
573 2 28.9982 63.6609 -5.55112e-17
574 2 141.106 142.838 -5.55112e-17
575 1 204.896 217.095 -5.55112e-17
576 1 52.6635 53.1478 -5.55112e-17
577 1 97.6772 118.852 -5.55112e-17
578 1 174.772 183.515 -5.55112e-17
579 2 194.985 128.412 -5.55112e-17
580 1 99.38 123.986 -5.55112e-17
581 1 89.749 136.09 -5.55112e-17
582 2 129.597 100.757 -5.55112e-17
583 2 114.715 82.8409 -5.55112e-17
584 2 103.296 148.93 -5.55112e-17
585 1 195.952 108.636 -5.55112e-17
586 1 157.275 75.8142 -5.55112e-17
587 1 180.748 73.4555 -5.55112e-17
588 2 218.651 70.9524 -5.55112e-17
589 1 31.6217 36.8645 -5.55112e-17
590 2 172.18 33.5252 -5.55112e-17
591 2 175.3 49.2726 -5.55112e-17
592 1 217.791 149.923 -5.55112e-17
593 1 138.484 91.5596 -5.55112e-17
594 1 8.64121 76.7083 -5.55112e-17
595 1 6.13445 43.3967 -5.55112e-17
596 2 112.911 107.342 -5.55112e-17
597 2 97.4856 126.226 -5.55112e-17
598 2 139.566 87.2703 -5.55112e-17
599 2 52.9697 169.134 -5.55112e-17
600 2 33.0927 117.791 -5.55112e-17
601 1 150.903 102.424 -5.55112e-17
602 1 159.571 34.2248 -5.55112e-17
603 2 9.98071 161.66 -5.55112e-17
604 1 28.9269 182.863 -5.55112e-17
605 2 143.32 100.489 -5.55112e-17
606 2 162.464 98.1084 -5.55112e-17
607 2 35.0053 190.282 -5.55112e-17
608 2 115.497 67.1408 -5.55112e-17
609 1 123.333 77.7145 -5.55112e-17
610 2 140.334 150.895 -5.55112e-17
611 1 9.41631 168.681 -5.55112e-17
612 1 203.196 90.6401 -5.55112e-17
613 2 5.09217 157.541 -5.55112e-17
614 1 161.619 34.9956 -5.55112e-17
615 1 153.65 102.99 -5.55112e-17
616 2 106.817 157.36 -5.55112e-17
617 1 205.584 206.951 -5.55112e-17
618 1 106.252 34.172 -5.55112e-17
619 1 145.487 162.498 -5.55112e-17
620 2 36.9873 73.442 -5.55112e-17
621 2 190.778 58.3088 -5.55112e-17
622 2 167.045 150.632 -5.55112e-17
623 2 124.874 121.884 -5.55112e-17
624 1 88.5072 159.072 -5.55112e-17
625 2 212.662 127.492 -5.55112e-17
626 1 30.8357 6.56935 -5.55112e-17
627 2 204.069 187.63 -5.55112e-17
628 1 148.746 139.821 -5.55112e-17
629 1 15.017 33.1262 -5.55112e-17
630 2 148.454 14.941 -5.55112e-17
631 2 149.521 114.475 -5.55112e-17
632 2 211.263 36.1617 -5.55112e-17
633 2 65.7571 64.1187 -5.55112e-17
634 2 5.15422 95.071 -5.55112e-17
635 2 56.5457 70.1228 -5.55112e-17
636 1 73.3222 100.967 -5.55112e-17
637 1 210.457 150.793 -5.55112e-17
638 1 83.1419 51.9788 -5.55112e-17
639 2 180.826 84.0125 -5.55112e-17
640 2 152.124 78.5213 -5.55112e-17
641 1 193.845 107.416 -5.55112e-17
642 2 155.199 43.2327 -5.55112e-17
643 1 116.908 84.2873 -5.55112e-17
644 2 146.788 138.158 -5.55112e-17
645 2 46.9158 91.8422 -5.55112e-17
646 1 175.231 91.0976 -5.55112e-17
647 2 121.331 140.309 -5.55112e-17
648 2 195.034 27.134 -5.55112e-17
649 1 53.4808 127.401 -5.55112e-17
650 1 34.3918 152.369 -5.55112e-17
651 1 109.304 116.754 -5.55112e-17
652 2 17.232 195.539 -5.55112e-17
653 2 175.116 196.952 -5.55112e-17
654 1 203.895 159.406 -5.55112e-17
655 1 81.2034 25.4517 -5.55112e-17
656 1 187.6 21.1814 -5.55112e-17
657 1 129.769 120.705 -5.55112e-17
658 2 176.394 81.6401 -5.55112e-17
659 2 101.509 172.211 -5.55112e-17
660 1 24.2042 30.5589 -5.55112e-17
661 2 24.7816 77.8055 -5.55112e-17
662 2 140.13 116.2 -5.55112e-17
663 1 177.313 110.452 -5.55112e-17
664 1 80.2661 95.1416 -5.55112e-17
665 1 132.588 143.378 -5.55112e-17
666 1 175.084 131.481 -5.55112e-17
667 1 13.5846 103.247 -5.55112e-17
668 1 122.176 149.602 -5.55112e-17
669 1 99.9255 160.766 -5.55112e-17
670 2 1.52637 178.346 -5.55112e-17
671 1 1.19595 28.7679 -5.55112e-17
672 1 217.762 167.614 -5.55112e-17
673 2 22.1776 118.264 -5.55112e-17
674 2 147.383 203.568 -5.55112e-17
675 2 143.771 13.0796 -5.55112e-17
676 1 165.296 121.358 -5.55112e-17
677 2 57.6321 57.5628 -5.55112e-17
678 1 94.5063 31.9072 -5.55112e-17
679 1 93.9871 5.57474 -5.55112e-17
680 2 89.7868 34.7308 -5.55112e-17
681 1 0.667395 19.511 -5.55112e-17
682 1 124.985 182.836 -5.55112e-17
683 2 84.0727 122.543 -5.55112e-17
684 1 31.134 201.522 -5.55112e-17
685 1 54.2961 211.117 -5.55112e-17
686 1 109.993 147.906 -5.55112e-17
687 1 108.827 103.715 -5.55112e-17
688 1 155.445 91.4778 -5.55112e-17
689 2 199.542 166.77 -5.55112e-17
690 1 63.7753 80.8928 -5.55112e-17
691 2 63.6896 125.982 -5.55112e-17
692 2 212.063 180.209 -5.55112e-17
693 1 166.081 94.2586 -5.55112e-17
694 2 165.672 108.861 -5.55112e-17
695 2 147.363 78.055 -5.55112e-17
696 2 202.22 94.5669 -5.55112e-17
697 1 141.149 16.5203 -5.55112e-17
698 2 55.489 21.462 -5.55112e-17
699 1 94.9397 191.982 -5.55112e-17
700 2 11.4049 132.829 -5.55112e-17
701 2 77.6965 95.6428 -5.55112e-17
702 1 134.536 6.02517 -5.55112e-17
703 1 211.248 59.5872 -5.55112e-17
704 1 4.57804 116.831 -5.55112e-17
705 1 29.4327 133.626 -5.55112e-17
706 1 98.944 189.56 -5.55112e-17
707 1 86.0477 63.4954 -5.55112e-17
708 2 197.557 138.545 -5.55112e-17
709 1 54.7484 167.107 -5.55112e-17
710 2 62.1928 64.0245 -5.55112e-17
711 2 160.272 214.191 -5.55112e-17
712 1 129.165 74.3913 -5.55112e-17
713 1 14.6237 147.698 -5.55112e-17
714 2 120.053 156.075 -5.55112e-17
715 2 135.438 88.4824 -5.55112e-17
716 1 97.3215 58.519 -5.55112e-17
717 1 55.5298 108.202 -5.55112e-17
718 2 82.0009 85.1038 -5.55112e-17
719 1 65.3416 54.1262 -5.55112e-17
720 2 38.9198 162.709 -5.55112e-17
721 2 29.112 213.348 -5.55112e-17
722 2 68.4112 121.791 -5.55112e-17
723 2 50.4945 152.478 -5.55112e-17
724 2 12.8427 69.0982 -5.55112e-17
725 2 10.4172 90.2329 -5.55112e-17
726 2 157.941 150.402 -5.55112e-17
727 2 2.3592 114.464 -5.55112e-17
728 1 170.817 64.4555 -5.55112e-17
729 2 208.443 145.615 -5.55112e-17
730 2 162.697 114.625 -5.55112e-17
731 1 210.808 61.9895 -5.55112e-17
732 2 102.992 109.039 -5.55112e-17
733 2 162.817 149.281 -5.55112e-17
734 2 25.8131 179.162 -5.55112e-17
735 2 76.3637 58.3604 -5.55112e-17
736 1 210.829 167.829 -5.55112e-17
737 2 31.2718 28.9504 -5.55112e-17
738 2 104.641 207.65 -5.55112e-17
739 2 169.806 167.207 -5.55112e-17
740 2 6.93968 83.0686 -5.55112e-17
741 2 205.009 99.0865 -5.55112e-17
742 1 69.5995 33.3589 -5.55112e-17
743 2 109.515 84.3578 -5.55112e-17
744 1 150.617 19.3231 -5.55112e-17
745 2 6.93274 78.7855 -5.55112e-17
746 1 7.55877 107.503 -5.55112e-17
747 1 73.6234 139.339 -5.55112e-17
748 2 70.8708 172.758 -5.55112e-17
749 1 2.65792 168.458 -5.55112e-17
750 1 152.823 100.464 -5.55112e-17
751 1 149.172 87.8594 -5.55112e-17
752 2 201.494 146.004 -5.55112e-17
753 1 50.1847 205.319 -5.55112e-17
754 2 48.6862 71.3418 -5.55112e-17
755 1 204.298 83.8065 -5.55112e-17
756 2 205.242 56.7216 -5.55112e-17
757 1 127.05 21.5695 -5.55112e-17
758 2 109.681 66.3321 -5.55112e-17
759 1 109.825 142.347 -5.55112e-17
760 1 153.376 71.9893 -5.55112e-17
761 2 5.81137 137.753 -5.55112e-17
762 1 182.913 131.742 -5.55112e-17
763 2 22.7511 163.222 -5.55112e-17
764 2 25.5499 176.163 -5.55112e-17
765 1 25.3 169.107 -5.55112e-17
766 2 104.27 97.031 -5.55112e-17
767 2 28.7277 145.526 -5.55112e-17
768 2 98.315 15.1912 -5.55112e-17
769 2 202.003 136.547 -5.55112e-17
770 1 155.557 209.109 -5.55112e-17
771 1 59.9731 25.576 -5.55112e-17
772 1 113.569 21.1723 -5.55112e-17
773 2 162.878 134.686 -5.55112e-17
774 1 72.4849 74.8644 -5.55112e-17
775 1 98.7729 97.5644 -5.55112e-17
776 2 203.325 115.211 -5.55112e-17
777 2 24.7772 92.5203 -5.55112e-17
778 1 115.875 212.727 -5.55112e-17
779 1 46.8067 2.40782 -5.55112e-17
780 2 149.058 44.9236 -5.55112e-17
781 1 36.0485 174.248 -5.55112e-17
782 2 145.206 133.163 -5.55112e-17
783 1 135.116 57.6426 -5.55112e-17
784 2 81.6552 92.5191 -5.55112e-17
785 1 170.506 92.9227 -5.55112e-17
786 1 94.7018 0.627977 -5.55112e-17
787 2 37.818 181.06 -5.55112e-17
788 2 167.14 195.326 -5.55112e-17
789 2 19.9929 162.143 -5.55112e-17
790 2 118.831 21.9331 -5.55112e-17
791 2 183.204 26.9172 -5.55112e-17
792 1 185.352 126.657 -5.55112e-17
793 1 96.4296 185.041 -5.55112e-17
794 2 206.752 20.4679 -5.55112e-17
795 2 208.298 166.837 -5.55112e-17
796 1 104.552 161.165 -5.55112e-17
797 1 40.2448 40.032 -5.55112e-17
798 1 23.735 94.8459 -5.55112e-17
799 2 99.1658 149.369 -5.55112e-17
800 1 54.8871 57.8355 -5.55112e-17
801 2 112.294 117.336 -5.55112e-17
802 1 69.1962 28.266 -5.55112e-17
803 1 148.558 17.6194 -5.55112e-17
804 1 196.799 111.092 -5.55112e-17
805 2 185.546 90.4114 -5.55112e-17
806 2 169.693 104.233 -5.55112e-17
807 2 191.366 52.8323 -5.55112e-17
808 2 64.3191 151.884 -5.55112e-17
809 1 128.969 65.0255 -5.55112e-17
810 2 31.6769 189.809 -5.55112e-17
811 2 171.769 17.4652 -5.55112e-17
812 1 100.865 181.723 -5.55112e-17
813 1 8.37344 137.926 -5.55112e-17
814 1 15.5528 197.694 -5.55112e-17
815 1 158.883 206.507 -5.55112e-17
816 1 192.736 113.103 -5.55112e-17
817 2 41.257 73.6171 -5.55112e-17
818 2 13.8614 94.0304 -5.55112e-17
819 2 204.281 72.5098 -5.55112e-17
820 1 61.1168 88.1519 -5.55112e-17
821 1 101.907 215.864 -5.55112e-17
822 2 89.726 8.92423 -5.55112e-17
823 1 214.136 114.378 -5.55112e-17
824 1 183.67 136.216 -5.55112e-17
825 1 156.045 170.864 -5.55112e-17
826 2 176.985 62.1995 -5.55112e-17
827 2 145.831 27.7281 -5.55112e-17
828 1 47.4017 60.7849 -5.55112e-17
829 2 132.977 90.3972 -5.55112e-17
830 1 22.0927 160.635 -5.55112e-17
831 2 165.279 21.0162 -5.55112e-17
832 2 71.6513 35.1051 -5.55112e-17
833 2 81.7244 205.447 -5.55112e-17
834 1 57.7174 164.481 -5.55112e-17
835 1 212.21 148.741 -5.55112e-17
836 1 158.733 66.6174 -5.55112e-17
837 2 175.558 93.4503 -5.55112e-17
838 2 119.832 84.5833 -5.55112e-17
839 1 47.5459 23.4117 -5.55112e-17
840 2 11.7558 154.122 -5.55112e-17
841 2 187.452 37.9507 -5.55112e-17
842 1 185.691 94.8726 -5.55112e-17
843 1 177.519 33.4368 -5.55112e-17
844 2 31.3533 68.5598 -5.55112e-17
845 1 43.4145 138.484 -5.55112e-17
846 2 165.461 182.803 -5.55112e-17
847 1 71.5276 131.285 -5.55112e-17
848 2 146.023 62.3056 -5.55112e-17
849 1 25.7331 60.6885 -5.55112e-17
850 2 75.3638 9.037 -5.55112e-17
851 2 0.104944 36.7822 -5.55112e-17
852 1 118.517 188.409 -5.55112e-17
853 1 174.662 110.187 -5.55112e-17
854 2 99.9421 142.242 -5.55112e-17
855 2 188.692 85.0209 -5.55112e-17
856 1 75.474 145.313 -5.55112e-17