ITEM: TIMESTEP
0
ITEM: NUMBER OF ATOMS
7200
ITEM: BOX BOUNDS xy xz yz pp pp pp
0.0000000000000000e+00 2.1900000000000000e+02 0.0000000000000000e+00
0.0000000000000000e+00 2.1900000000000000e+02 0.0000000000000000e+00
-3.6499999999999999e-01 3.6499999999999999e-01 0.0000000000000000e+00
ITEM: ATOMS id type x y z
1 1 182.922 12.6645 -5.55112e-17
2 2 188.431 183.263 -5.55112e-17
3 2 144.818 189.398 -5.55112e-17
4 1 123.065 110.306 -5.55112e-17
5 1 101.014 122.773 -5.55112e-17
6 1 104.616 25.6245 -5.55112e-17
7 2 158.6 129.325 -5.55112e-17
8 2 69.7789 25.5264 -5.55112e-17
9 1 21.9438 214.64 -5.55112e-17
10 2 52.5745 166.363 -5.55112e-17
11 2 209.906 99.8586 -5.55112e-17
12 1 34.0126 197.917 -5.55112e-17
13 2 194.516 54.1356 -5.55112e-17
14 1 57.8056 184.316 -5.55112e-17
15 2 193.56 218.916 -5.55112e-17
16 2 218.265 85.4534 -5.55112e-17
17 1 67.3295 74.6332 -5.55112e-17
18 2 10.6127 172.781 -5.55112e-17
19 1 92.9647 130.164 -5.55112e-17
20 1 72.5874 10.6491 -5.55112e-17
21 1 156.846 7.78313 -5.55112e-17
22 2 31.7583 212.905 -5.55112e-17
23 2 43.207 208.535 -5.55112e-17
24 2 218.495 102.87 -5.55112e-17
25 2 30.307 207.724 -5.55112e-17
26 2 149.441 27.7034 -5.55112e-17
27 1 217.578 162.809 -5.55112e-17
28 2 53.9781 154.743 -5.55112e-17
29 2 83.8996 4.1253 -5.55112e-17
30 2 132.233 37.2178 -5.55112e-17
31 2 156.223 83.5808 -5.55112e-17
32 1 47.8781 108.64 -5.55112e-17
33 2 144.747 86.9567 -5.55112e-17
34 2 15.8795 96.2857 -5.55112e-17
35 2 127.376 11.4121 -5.55112e-17
36 1 160.394 146.602 -5.55112e-17
37 1 134.009 185.126 -5.55112e-17
38 2 209.102 157.986 -5.55112e-17
39 1 8.03886 38.0357 -5.55112e-17
40 2 196.409 73.7486 -5.55112e-17
41 1 192.361 73.4203 -5.55112e-17
42 1 54.6296 58.7768 -5.55112e-17
43 1 210.051 132.277 -5.55112e-17
44 1 155.681 188.879 -5.55112e-17
45 2 159.419 60.9586 -5.55112e-17
46 1 124.656 192.526 -5.55112e-17
47 2 89.2843 80.258 -5.55112e-17
48 2 150.356 129.805 -5.55112e-17
49 1 194.621 200.369 -5.55112e-17
50 2 29.1858 46.8029 -5.55112e-17
51 1 186.424 2.99343 -5.55112e-17
52 1 115.463 47.9625 -5.55112e-17
53 2 54.9998 200.636 -5.55112e-17
54 1 39.147 16.9222 -5.55112e-17
55 2 53.1947 141.416 -5.55112e-17
56 1 30.8678 132.425 -5.55112e-17
57 2 58.3021 133.895 -5.55112e-17
58 1 185.791 38.4649 -5.55112e-17
59 1 157.187 86.2947 -5.55112e-17
60 2 206.367 59.6802 -5.55112e-17
61 1 157.438 164.406 -5.55112e-17
62 1 106.486 111.964 -5.55112e-17
63 2 109.054 38.8594 -5.55112e-17
64 1 28.3163 17.7384 -5.55112e-17
65 2 152.723 149.465 -5.55112e-17
66 2 13.3546 154.867 -5.55112e-17
67 2 182.381 107.46 -5.55112e-17
68 1 136.376 83.3628 -5.55112e-17
69 2 109.67 168.78 -5.55112e-17
70 1 141.422 98.0925 -5.55112e-17
71 1 198.166 147.834 -5.55112e-17
72 2 44.8159 157.391 -5.55112e-17
73 2 191.881 179.197 -5.55112e-17
74 2 111.291 67.2019 -5.55112e-17
75 1 14.1218 136.73 -5.55112e-17
76 2 138.002 206.637 -5.55112e-17
77 2 168.822 15.8376 -5.55112e-17
78 1 93.5885 207.902 -5.55112e-17
79 2 60.2905 75.9826 -5.55112e-17
80 1 50.0593 23.0146 -5.55112e-17
81 1 181.787 211.157 -5.55112e-17
82 1 173.685 41.696 -5.55112e-17
83 1 70.9485 91.1683 -5.55112e-17
84 2 141.068 179.533 -5.55112e-17
85 2 151.298 146.012 -5.55112e-17
86 2 50.4156 68.0623 -5.55112e-17
87 2 37.7168 75.7241 -5.55112e-17
88 1 80.7016 157.778 -5.55112e-17
89 2 199.202 105.255 -5.55112e-17
90 2 126.376 36.2692 -5.55112e-17
91 2 11.5227 182.541 -5.55112e-17
92 1 27.6987 215.493 -5.55112e-17
93 2 110.447 154.527 -5.55112e-17
94 2 112.887 144.392 -5.55112e-17
95 1 211.402 51.8114 -5.55112e-17
96 2 32.1191 54.0506 -5.55112e-17
97 2 4.38501 211.601 -5.55112e-17
98 2 35.9748 185.022 -5.55112e-17
99 1 105.079 9.73219 -5.55112e-17
100 2 158.973 65.7955 -5.55112e-17
101 1 183.818 109.579 -5.55112e-17
102 1 66.4685 163.87 -5.55112e-17
103 2 204.467 100.008 -5.55112e-17
104 2 104.389 73.4257 -5.55112e-17
105 1 160.913 58.6955 -5.55112e-17
106 1 185.022 60.5222 -5.55112e-17
107 1 12.0258 106.914 -5.55112e-17
108 1 69.866 209.857 -5.55112e-17
109 2 217.504 39.4416 -5.55112e-17
110 2 145.268 29.8244 -5.55112e-17
111 1 52.7358 92.5246 -5.55112e-17
112 2 8.80617 50.8303 -5.55112e-17
113 1 135.262 10.8455 -5.55112e-17
114 1 92.1943 86.8063 -5.55112e-17
115 2 31.2553 58.4882 -5.55112e-17
116 2 184.021 15.1411 -5.55112e-17
117 1 163.003 110.642 -5.55112e-17
118 1 82.6202 94.1665 -5.55112e-17
119 2 99.2261 139.681 -5.55112e-17
120 2 201.287 59.0947 -5.55112e-17
121 1 205.217 138.976 -5.55112e-17
122 2 143.739 129.585 -5.55112e-17
123 2 6.20361 129.571 -5.55112e-17
124 1 161.869 199.904 -5.55112e-17
125 1 88.397 192.725 -5.55112e-17
126 2 97.6399 84.6764 -5.55112e-17
127 2 208.243 110.346 -5.55112e-17
128 1 121.65 105.313 -5.55112e-17
129 1 144.248 194.684 -5.55112e-17
130 2 120.153 61.3883 -5.55112e-17
131 1 133.85 59.94 -5.55112e-17
132 1 139.52 21.95 -5.55112e-17
133 1 180.544 105.395 -5.55112e-17
134 1 81.1436 191.25 -5.55112e-17
135 2 177.794 61.5143 -5.55112e-17
136 1 190.28 118.836 -5.55112e-17
137 1 60.8476 7.25253 -5.55112e-17
138 2 156.107 158.939 -5.55112e-17
139 1 132.972 11.7917 -5.55112e-17
140 1 145.203 208.344 -5.55112e-17
141 1 50.7465 70.8634 -5.55112e-17
142 1 213.058 190.822 -5.55112e-17
143 1 26.5077 26.1013 -5.55112e-17
144 1 46.1961 98.0162 -5.55112e-17
145 2 193.255 80.1793 -5.55112e-17
146 1 153.124 126.148 -5.55112e-17
147 2 15.7106 134.661 -5.55112e-17
148 1 24.1579 133.455 -5.55112e-17
149 1 147.582 190.459 -5.55112e-17
150 2 66.2983 53.2252 -5.55112e-17
151 1 132.457 138.071 -5.55112e-17
152 1 164.477 163.823 -5.55112e-17
153 2 124.227 130.656 -5.55112e-17
154 1 184.094 53.0365 -5.55112e-17
155 2 203.256 40.1381 -5.55112e-17
156 2 109.869 196.981 -5.55112e-17
157 2 166.366 29.0656 -5.55112e-17
158 2 27.5729 7.86952 -5.55112e-17
159 2 11.7548 158.953 -5.55112e-17
160 2 120.558 54.6409 -5.55112e-17
161 2 129.979 139.049 -5.55112e-17
162 1 24.2985 66.8155 -5.55112e-17
163 1 188.85 34.2162 -5.55112e-17
164 2 108.306 134.843 -5.55112e-17
165 1 48.7579 72.2827 -5.55112e-17
166 2 5.96653 199.822 -5.55112e-17
167 1 107.14 167.829 -5.55112e-17
168 1 211.063 102.627 -5.55112e-17
169 2 98.1707 199.295 -5.55112e-17
170 1 65.9967 206.38 -5.55112e-17
171 1 137.246 92.2901 -5.55112e-17
172 1 199.639 199.972 -5.55112e-17
173 1 38.7427 204.263 -5.55112e-17
174 2 38.3736 173.107 -5.55112e-17
175 2 49.9785 199.829 -5.55112e-17
176 1 119.888 151.707 -5.55112e-17
177 2 105.015 15.6115 -5.55112e-17
178 1 24.8785 7.7306 -5.55112e-17
179 2 106.631 197.103 -5.55112e-17
180 1 47.0369 76.4503 -5.55112e-17
181 1 15.5773 119.44 -5.55112e-17
182 1 113.506 87.3716 -5.55112e-17
183 1 64.0865 168.661 -5.55112e-17
184 2 157.666 25.6785 -5.55112e-17
185 2 190.055 78.8754 -5.55112e-17
186 2 74.0551 205.974 -5.55112e-17
187 2 159.627 201.81 -5.55112e-17
188 2 60.4986 28.4144 -5.55112e-17
189 1 191.605 58.0756 -5.55112e-17
190 1 196.558 56.0332 -5.55112e-17
191 2 34.9826 105.135 -5.55112e-17
192 2 90.9757 61.5271 -5.55112e-17
193 1 108.739 166.148 -5.55112e-17
194 1 26.3919 5.44419 -5.55112e-17
195 2 58.0872 120.195 -5.55112e-17
196 1 0.239193 218.997 -5.55112e-17
197 2 117.893 48.5616 -5.55112e-17
198 2 206.398 27.7435 -5.55112e-17
199 2 99.6421 170.386 -5.55112e-17
200 2 98.6837 30.9645 -5.55112e-17
201 2 103.311 121.349 -5.55112e-17
202 1 44.0196 33.9955 -5.55112e-17
203 1 18.4434 42.8098 -5.55112e-17
204 2 45.0734 78.4058 -5.55112e-17
205 2 183.149 182.087 -5.55112e-17
206 2 170.049 127.204 -5.55112e-17
207 1 74.6267 189.366 -5.55112e-17
208 2 135.219 54.4251 -5.55112e-17
209 2 32.6609 142.169 -5.55112e-17
210 1 181.856 113.016 -5.55112e-17
211 1 208.616 35.3533 -5.55112e-17
212 1 208.617 85.0405 -5.55112e-17
213 1 128.374 123.838 -5.55112e-17
214 2 12.1627 11.7337 -5.55112e-17
215 1 4.57875 142.212 -5.55112e-17
216 1 55.371 46.3767 -5.55112e-17
217 1 164.224 61.5984 -5.55112e-17
218 2 200.716 120.992 -5.55112e-17
219 2 136.544 189.594 -5.55112e-17
220 1 120.953 1.4463 -5.55112e-17
221 2 83.1395 6.98336 -5.55112e-17
222 1 158.637 157.535 -5.55112e-17
223 1 45.7757 120.47 -5.55112e-17
224 2 145.768 70.6054 -5.55112e-17
225 2 169.175 163.808 -5.55112e-17
226 1 196.355 10.2368 -5.55112e-17
227 2 203.929 215.182 -5.55112e-17
228 2 117.831 63.4647 -5.55112e-17
229 1 47.7648 22.8403 -5.55112e-17
230 1 4.97568 56.8381 -5.55112e-17
231 2 137.195 160.71 -5.55112e-17
232 1 18.0349 212.507 -5.55112e-17
233 2 75.6238 196.032 -5.55112e-17
234 1 0.641298 59.7481 -5.55112e-17
235 1 149.979 106.134 -5.55112e-17
236 2 153.484 52.8503 -5.55112e-17
237 2 99.3938 203.953 -5.55112e-17
238 2 95.0339 140.443 -5.55112e-17
239 1 35.8413 217.112 -5.55112e-17
240 1 129.452 90.975 -5.55112e-17
241 2 2.77445 124.416 -5.55112e-17
242 1 193.873 28.348 -5.55112e-17
243 2 214.073 129.899 -5.55112e-17
244 2 35.7063 190.83 -5.55112e-17
245 1 174.021 21.3188 -5.55112e-17
246 2 90.0988 85.3963 -5.55112e-17
247 2 199.113 150.57 -5.55112e-17
248 1 38.316 26.9398 -5.55112e-17
249 1 131.727 108.196 -5.55112e-17
250 1 134.585 28.0324 -5.55112e-17
251 2 102.297 43.3315 -5.55112e-17
252 1 111.28 157.374 -5.55112e-17
253 2 95.5987 97.9494 -5.55112e-17
254 2 179.384 205.21 -5.55112e-17
255 2 121.705 51.5215 -5.55112e-17
256 1 3.39037 180.434 -5.55112e-17
257 2 32.8005 195.376 -5.55112e-17
258 1 210.797 81.1429 -5.55112e-17
259 2 161.006 141.579 -5.55112e-17
260 1 40.5688 192.767 -5.55112e-17
261 2 142.932 176.777 -5.55112e-17
262 2 186.193 110.219 -5.55112e-17
263 2 94.4144 173.1 -5.55112e-17
264 1 199.013 36.4242 -5.55112e-17
265 1 157.694 187.186 -5.55112e-17
266 1 98.8012 196.748 -5.55112e-17
267 2 115.546 16.4033 -5.55112e-17
268 1 218.711 48.7269 -5.55112e-17
269 2 9.61886 113.614 -5.55112e-17
270 2 185.496 148.619 -5.55112e-17
271 2 187.606 94.9073 -5.55112e-17
272 1 59.1572 25.9484 -5.55112e-17
273 1 70.2154 83.5569 -5.55112e-17
274 1 38.2923 196.341 -5.55112e-17
275 1 146.437 110.326 -5.55112e-17
276 1 198.72 74.9195 -5.55112e-17
277 1 100.626 37.8103 -5.55112e-17
278 2 60.5916 145.071 -5.55112e-17
279 2 159.695 86.754 -5.55112e-17
280 1 117.118 210.772 -5.55112e-17
281 2 169.659 182.467 -5.55112e-17
282 2 75.208 127.227 -5.55112e-17
283 2 218.928 151.136 -5.55112e-17
284 1 125.826 113.604 -5.55112e-17
285 1 73.2691 165.237 -5.55112e-17
286 2 30.4639 179.927 -5.55112e-17
287 2 93.3978 110.321 -5.55112e-17
288 1 104.557 123.761 -5.55112e-17
289 2 193.963 57.218 -5.55112e-17
290 1 101.396 29.8197 -5.55112e-17
291 2 96.5909 185.95 -5.55112e-17
292 1 76.7662 125.235 -5.55112e-17
293 1 159.365 168.061 -5.55112e-17
294 1 29.975 177.425 -5.55112e-17
295 2 46.5843 145.604 -5.55112e-17
296 1 197.141 176.512 -5.55112e-17
297 1 2.21089 18.5951 -5.55112e-17
298 2 30.3615 140.328 -5.55112e-17
299 1 177.623 55.7744 -5.55112e-17
300 2 190.437 192.668 -5.55112e-17
301 2 172.102 19.5557 -5.55112e-17
302 2 163.335 89.4803 -5.55112e-17
303 1 2.47418 151.821 -5.55112e-17
304 1 124.114 106.049 -5.55112e-17
305 1 92.2818 177.685 -5.55112e-17
306 2 83.8937 17.7925 -5.55112e-17
307 2 150.654 167.493 -5.55112e-17
308 2 142.222 22.3923 -5.55112e-17
309 1 70.5948 71.9037 -5.55112e-17
310 1 191.051 190.031 -5.55112e-17
311 1 150.858 108.584 -5.55112e-17
312 2 135.123 13.4979 -5.55112e-17
313 2 155.117 17.9696 -5.55112e-17
314 1 184.351 58.1922 -5.55112e-17
315 2 56.4309 107.712 -5.55112e-17
316 1 95.8654 30.7711 -5.55112e-17
317 1 133.153 176.046 -5.55112e-17
318 1 215.698 135.168 -5.55112e-17
319 2 74.0791 200.866 -5.55112e-17
320 1 214.065 47.8717 -5.55112e-17
321 1 52.3467 87.385 -5.55112e-17
322 1 51.4963 148.043 -5.55112e-17
323 2 19.3312 138.587 -5.55112e-17
324 2 7.73972 95.3521 -5.55112e-17
325 2 216.267 13.6075 -5.55112e-17
326 1 184.978 0.871288 -5.55112e-17
327 1 35.8249 46.1024 -5.55112e-17
328 2 32.9069 192.277 -5.55112e-17
329 2 28.4286 83.6918 -5.55112e-17
330 2 153.87 38.7655 -5.55112e-17
331 2 187.692 67.9625 -5.55112e-17
332 2 121.411 114.713 -5.55112e-17
333 2 28.1609 150.97 -5.55112e-17
334 2 216.029 18.1656 -5.55112e-17
335 1 167.162 211.13 -5.55112e-17
336 2 27.5456 141.591 -5.55112e-17
337 2 40.8174 9.80335 -5.55112e-17
338 1 203.307 90.2712 -5.55112e-17
339 2 14.9633 152.346 -5.55112e-17
340 2 177.056 214.228 -5.55112e-17
341 2 101.741 60.0474 -5.55112e-17
342 2 173.598 166.494 -5.55112e-17
343 2 176.219 5.00353 -5.55112e-17
344 1 87.9275 105.946 -5.55112e-17
345 2 26.6375 212.901 -5.55112e-17
346 2 74.9131 72.9779 -5.55112e-17
347 1 147.618 98.7971 -5.55112e-17
348 1 181.448 3.98343 -5.55112e-17
349 2 172.983 70.2555 -5.55112e-17
350 2 77.9703 179.166 -5.55112e-17
351 1 174.87 141.754 -5.55112e-17
352 1 212.98 163.835 -5.55112e-17
353 2 141.644 131.938 -5.55112e-17
354 2 191.666 176.163 -5.55112e-17
355 1 215.746 157.596 -5.55112e-17
356 2 114.892 2.05775 -5.55112e-17
357 1 127.301 192.546 -5.55112e-17
358 1 77.7769 25.3208 -5.55112e-17
359 1 34.7712 143.887 -5.55112e-17
360 1 51.4059 8.16374 -5.55112e-17
361 2 196.088 68.7903 -5.55112e-17
362 2 172.05 94.6058 -5.55112e-17
363 1 78.9977 215.005 -5.55112e-17
364 2 217.088 46.7003 -5.55112e-17
365 1 5.77806 164.6 -5.55112e-17
366 1 82.5654 173.05 -5.55112e-17
367 1 160.944 103.981 -5.55112e-17
368 1 20.6775 164.317 -5.55112e-17
369 2 81.8521 143.458 -5.55112e-17
370 1 5.83859 132.361 -5.55112e-17
371 2 71.763 111.694 -5.55112e-17
372 1 88.313 6.85927 -5.55112e-17
373 2 118.147 208.285 -5.55112e-17
374 2 176.464 101.599 -5.55112e-17
375 1 136.327 25.8291 -5.55112e-17
376 1 121.972 147.114 -5.55112e-17
377 2 95.5093 75.9788 -5.55112e-17
378 2 214.968 106.64 -5.55112e-17
379 2 169.645 187.132 -5.55112e-17
380 1 199.435 33.8061 -5.55112e-17
381 1 174.954 67.8071 -5.55112e-17
382 1 122.6 27.0227 -5.55112e-17
383 1 110.049 83.2483 -5.55112e-17
384 2 53.5713 100.752 -5.55112e-17
385 1 66.0518 149.086 -5.55112e-17
386 2 179.92 175.89 -5.55112e-17
387 1 33.9021 107.496 -5.55112e-17
388 1 143.79 164.255 -5.55112e-17
389 2 215.412 121.026 -5.55112e-17
390 1 105.222 66.1978 -5.55112e-17
391 1 203.506 217.736 -5.55112e-17
392 2 3.88399 100.384 -5.55112e-17
393 2 192.826 173.132 -5.55112e-17
394 1 36.2546 204.22 -5.55112e-17
395 1 19.4539 214.929 -5.55112e-17
396 2 75.4068 88.2108 -5.55112e-17
397 1 67.9756 41.9948 -5.55112e-17
398 2 165.536 111.09 -5.55112e-17
399 2 196.376 106.285 -5.55112e-17
400 2 123.553 68.8203 -5.55112e-17
401 2 84.1428 190.743 -5.55112e-17
402 1 84.5024 42.8551 -5.55112e-17
403 1 69.6949 116.306 -5.55112e-17
404 2 113.564 13.907 -5.55112e-17
405 1 49.16 197.033 -5.55112e-17
406 2 216.81 95.797 -5.55112e-17
407 1 123.762 78.6217 -5.55112e-17
408 1 130.032 29.149 -5.55112e-17
409 2 213.944 116.076 -5.55112e-17
410 2 70.8891 158.611 -5.55112e-17
411 1 136 96.7487 -5.55112e-17
412 1 164.35 6.94173 -5.55112e-17
413 1 34.5015 86.1524 -5.55112e-17
414 2 193.591 202.904 -5.55112e-17
415 1 107.372 126.785 -5.55112e-17
416 1 176.066 52.1346 -5.55112e-17
417 2 107.428 129.385 -5.55112e-17
418 2 35.0322 179.324 -5.55112e-17
419 2 195.151 91.7069 -5.55112e-17
420 2 108.816 44.4831 -5.55112e-17
421 1 70.3364 30.7641 -5.55112e-17
422 1 35.3981 60.6696 -5.55112e-17
423 2 116.726 125.478 -5.55112e-17
424 2 39.2668 24.6075 -5.55112e-17
425 2 117.457 150.738 -5.55112e-17
426 1 185.709 96.8417 -5.55112e-17
427 2 74.725 60.5101 -5.55112e-17
428 1 29.3572 174.819 -5.55112e-17
429 2 131.339 150.07 -5.55112e-17
430 2 111.449 104.741 -5.55112e-17
431 1 13.3172 9.13905 -5.55112e-17
432 2 173.815 3.18037 -5.55112e-17
433 1 186.768 198.485 -5.55112e-17
434 1 20.4543 205.074 -5.55112e-17
435 1 149.597 85.1747 -5.55112e-17
436 2 85.4048 198.634 -5.55112e-17
437 2 180.829 82.5251 -5.55112e-17
438 2 194.349 177.12 -5.55112e-17
439 2 92.7759 10.6844 -5.55112e-17
440 2 200.62 91.5203 -5.55112e-17
441 1 131.231 167.653 -5.55112e-17
442 1 37.4736 104.965 -5.55112e-17
443 2 79.103 81.938 -5.55112e-17
444 1 204.075 104.277 -5.55112e-17
445 1 169.286 133.146 -5.55112e-17
446 2 183.338 150.57 -5.55112e-17
447 2 40.581 39.8747 -5.55112e-17
448 2 205.714 176.34 -5.55112e-17
449 1 41.6005 177.094 -5.55112e-17
450 1 10.0923 126.213 -5.55112e-17
451 1 53.7074 209.135 -5.55112e-17
452 2 208.769 61.045 -5.55112e-17
453 1 216.362 150.505 -5.55112e-17
454 1 3.43616 68.7552 -5.55112e-17
455 2 81.3567 131.181 -5.55112e-17
456 1 85.045 1.69784 -5.55112e-17
457 2 140.622 145.039 -5.55112e-17
458 2 155.868 135.995 -5.55112e-17
459 2 133.376 51.1442 -5.55112e-17
460 1 197.521 169.773 -5.55112e-17
461 1 112.078 128.678 -5.55112e-17
462 1 104.028 196.008 -5.55112e-17
463 2 110.31 218.582 -5.55112e-17
464 2 13.5991 77.9638 -5.55112e-17
465 1 123.935 15.9753 -5.55112e-17
466 2 150.407 126.615 -5.55112e-17
467 2 65.7036 133.029 -5.55112e-17
468 2 124.088 125.769 -5.55112e-17
469 2 58.0481 71.5615 -5.55112e-17
470 2 208.639 154.623 -5.55112e-17
471 2 212.173 211.777 -5.55112e-17
472 2 111.174 36.7933 -5.55112e-17
473 2 198.474 214.902 -5.55112e-17
474 2 85.0719 147.186 -5.55112e-17
475 1 163.98 183.096 -5.55112e-17
476 2 175.177 34.8886 -5.55112e-17
477 1 208.76 218.497 -5.55112e-17
478 1 46.2709 188.163 -5.55112e-17
479 2 0.743856 197.529 -5.55112e-17
480 1 82.9807 61.8281 -5.55112e-17
481 1 2.9186 209.314 -5.55112e-17
482 2 153.026 176.47 -5.55112e-17
483 1 134.793 209.45 -5.55112e-17
484 1 66.1169 135.78 -5.55112e-17
485 2 13.6852 173.813 -5.55112e-17
486 1 132.723 72.975 -5.55112e-17
487 1 13.2192 201.999 -5.55112e-17
488 1 50.0101 83.9499 -5.55112e-17
489 1 70.3459 109.26 -5.55112e-17
490 1 164.413 73.3854 -5.55112e-17
491 1 162.781 75.3912 -5.55112e-17
492 2 209.122 15.7433 -5.55112e-17
493 1 93.9634 203 -5.55112e-17
494 2 77.8612 66.4458 -5.55112e-17
495 1 149.719 91.9549 -5.55112e-17
496 1 51.9902 123.597 -5.55112e-17
497 1 136.543 109.817 -5.55112e-17
498 2 145.765 39.032 -5.55112e-17
499 2 177.151 118.952 -5.55112e-17
500 2 57.3367 32.5879 -5.55112e-17
501 2 14.2391 139.407 -5.55112e-17
502 2 190.605 126.452 -5.55112e-17
503 2 57.4797 63.6049 -5.55112e-17
504 2 98.0226 50.3409 -5.55112e-17
505 2 112.132 213.734 -5.55112e-17
506 1 207.351 6.72097 -5.55112e-17
507 2 49.6342 181.905 -5.55112e-17
508 1 140.456 59.016 -5.55112e-17
509 1 209.587 47.4622 -5.55112e-17
510 1 194.921 104.088 -5.55112e-17
511 2 108.73 179.149 -5.55112e-17
512 1 11.1974 42.4779 -5.55112e-17
513 2 87.9584 183.234 -5.55112e-17
514 2 14.8343 87.6711 -5.55112e-17
515 1 60.3943 98.7233 -5.55112e-17
516 2 101.392 73.7299 -5.55112e-17
517 1 32.189 147.395 -5.55112e-17
518 2 10.1528 14.013 -5.55112e-17
519 1 124.778 92.1759 -5.55112e-17
520 2 209.176 93.7191 -5.55112e-17
521 2 129.958 39.774 -5.55112e-17
522 1 187.192 7.32195 -5.55112e-17
523 1 127.354 99.6023 -5.55112e-17
524 2 175.141 18.6265 -5.55112e-17
525 2 185.81 46.4095 -5.55112e-17
526 2 108.298 16.1749 -5.55112e-17
527 1 170.65 25.2685 -5.55112e-17
528 1 213.088 202.313 -5.55112e-17
529 2 104.614 176.368 -5.55112e-17
530 2 18.0457 88.474 -5.55112e-17
531 2 184.736 171.94 -5.55112e-17
532 1 81.3471 4.68358 -5.55112e-17
533 2 23.3074 158.241 -5.55112e-17
534 1 22.7409 168.228 -5.55112e-17
535 1 170.211 206.634 -5.55112e-17
536 2 18.0066 169.615 -5.55112e-17
537 1 142.722 29.1592 -5.55112e-17
538 1 68.6097 157.532 -5.55112e-17
539 2 80.7353 163.435 -5.55112e-17
540 1 35.5765 182.039 -5.55112e-17
541 1 104.532 129.342 -5.55112e-17
542 1 58.2849 126.598 -5.55112e-17
543 2 120.483 168.824 -5.55112e-17
544 1 217.802 211.386 -5.55112e-17
545 1 174.72 72.3656 -5.55112e-17
546 2 187.117 9.96217 -5.55112e-17
547 1 13.1438 72.0449 -5.55112e-17
548 1 29.1804 5.59782 -5.55112e-17
549 2 35.1404 152.368 -5.55112e-17
550 2 165.139 193.485 -5.55112e-17
551 2 38.7254 7.27173 -5.55112e-17
552 1 31.6526 51.4223 -5.55112e-17
553 2 206.962 197.068 -5.55112e-17
554 2 144.634 34.2807 -5.55112e-17
555 2 177.961 134.97 -5.55112e-17
556 1 177.709 211.71 -5.55112e-17
557 1 211.058 54.2991 -5.55112e-17
558 1 60.2512 142.461 -5.55112e-17
559 2 106.156 91.7771 -5.55112e-17
560 2 56.9089 89.3332 -5.55112e-17
561 2 111.092 181.375 -5.55112e-17
562 2 98.3142 65.1482 -5.55112e-17
563 1 73.324 167.703 -5.55112e-17
564 2 103.195 78.7309 -5.55112e-17
565 2 32.6842 61.4114 -5.55112e-17
566 2 64.1703 60.5754 -5.55112e-17
567 1 95.1895 11.6121 -5.55112e-17
568 1 22.4648 78.124 -5.55112e-17
569 2 141.683 194.634 -5.55112e-17
570 2 11.6566 21.6866 -5.55112e-17
571 2 5.37693 62.0879 -5.55112e-17
572 1 115.189 108.112 -5.55112e-17
573 2 37.6845 89.4069 -5.55112e-17
574 2 178.957 170.827 -5.55112e-17
575 1 196.22 207.008 -5.55112e-17
576 1 26.1449 68.6869 -5.55112e-17
577 1 127.59 74.6928 -5.55112e-17
578 1 183.477 115.008 -5.55112e-17
579 2 182.679 46.9512 -5.55112e-17
580 1 108.913 104.191 -5.55112e-17
581 1 91.7432 146.529 -5.55112e-17
582 2 125.401 101.276 -5.55112e-17
583 2 103.063 84.0058 -5.55112e-17
584 2 107.563 151.451 -5.55112e-17
585 1 181.601 103.175 -5.55112e-17
586 1 143.855 79.6203 -5.55112e-17
587 1 158.154 111.794 -5.55112e-17
588 2 64.3399 108.775 -5.55112e-17
589 1 210.958 59.651 -5.55112e-17
590 2 181.675 58.2426 -5.55112e-17
591 2 178.973 16.389 -5.55112e-17
592 1 203.742 128.612 -5.55112e-17
593 1 126.849 90.2617 -5.55112e-17
594 1 5.85433 70.2078 -5.55112e-17
595 1 30.5211 63.0159 -5.55112e-17
596 2 107.091 71.4857 -5.55112e-17
597 2 63.4497 105.895 -5.55112e-17
598 2 135.536 87.738 -5.55112e-17
599 2 97.0018 165.789 -5.55112e-17
600 2 48.5776 98.7508 -5.55112e-17
601 1 145.711 108.025 -5.55112e-17
602 1 173.638 52.4981 -5.55112e-17
603 2 216.822 160.047 -5.55112e-17
604 1 46.2652 179.062 -5.55112e-17
605 2 139.781 100.471 -5.55112e-17
606 2 150.198 98.8538 -5.55112e-17
607 2 47.7461 169.187 -5.55112e-17
608 2 128.327 31.0664 -5.55112e-17
609 1 77.882 89.239 -5.55112e-17
610 2 106.039 200.144 -5.55112e-17
611 1 1.62128 165.995 -5.55112e-17
612 1 206.804 117.271 -5.55112e-17
613 2 213.266 156.718 -5.55112e-17
614 1 202.348 30.4825 -5.55112e-17
615 1 151.741 104.237 -5.55112e-17
616 2 146.191 178.042 -5.55112e-17
617 1 168.832 1.20687 -5.55112e-17
618 1 137.247 216.651 -5.55112e-17
619 1 164.168 160.987 -5.55112e-17
620 2 42.571 89.1446 -5.55112e-17
621 2 203.52 76.7558 -5.55112e-17
622 2 144.93 154.2 -5.55112e-17
623 2 108.928 147.149 -5.55112e-17
624 1 107.213 176.987 -5.55112e-17
625 2 208.847 79.5395 -5.55112e-17
626 1 210.761 190.022 -5.55112e-17
627 2 195.268 193.244 -5.55112e-17
628 1 116.91 156.147 -5.55112e-17
629 1 30.599 41.0778 -5.55112e-17
630 2 133.189 214.067 -5.55112e-17
631 2 144.615 115.149 -5.55112e-17
632 2 208.906 20.232 -5.55112e-17
633 2 60.4044 131.513 -5.55112e-17
634 2 191.044 67.778 -5.55112e-17
635 2 80.006 72.7173 -5.55112e-17
636 1 88.042 131.134 -5.55112e-17
637 1 216.98 152.995 -5.55112e-17
638 1 116.623 69.0022 -5.55112e-17
639 2 200.699 65.9197 -5.55112e-17
640 2 149.073 77.8528 -5.55112e-17
641 1 199.824 96.472 -5.55112e-17
642 2 161.989 35.5699 -5.55112e-17
643 1 165.345 57.8646 -5.55112e-17
644 2 139.454 154.826 -5.55112e-17
645 2 5.76282 75.2553 -5.55112e-17
646 1 169.62 142.429 -5.55112e-17
647 2 128.998 148.311 -5.55112e-17
648 2 190.679 211.746 -5.55112e-17
649 1 63.4267 145.455 -5.55112e-17
650 1 56.2234 153.032 -5.55112e-17
651 1 112.331 131.17 -5.55112e-17
652 2 8.37111 213.994 -5.55112e-17
653 2 195.643 45.5798 -5.55112e-17
654 1 208.788 165.031 -5.55112e-17
655 1 63.6682 47.9258 -5.55112e-17
656 1 198.965 10.495 -5.55112e-17
657 1 125.088 120.647 -5.55112e-17
658 2 165.493 105.736 -5.55112e-17
659 2 101.241 137.675 -5.55112e-17
660 1 25.0529 12.1504 -5.55112e-17
661 2 15.8829 36.783 -5.55112e-17
662 2 135.731 116.953 -5.55112e-17
663 1 163.239 112.925 -5.55112e-17
664 1 80.0571 138.638 -5.55112e-17
665 1 135.702 144.022 -5.55112e-17
666 1 202.998 185.631 -5.55112e-17
667 1 218.91 116.632 -5.55112e-17
668 1 134.454 156.838 -5.55112e-17
669 1 107.486 160.826 -5.55112e-17
670 2 211.973 161.336 -5.55112e-17
671 1 3.45124 16.6826 -5.55112e-17
672 1 193.255 141.604 -5.55112e-17
673 2 47.4158 84.5863 -5.55112e-17
674 2 182.819 205.69 -5.55112e-17
675 2 152.641 1.75104 -5.55112e-17
676 1 180.371 159.874 -5.55112e-17
677 2 53.5312 53.0827 -5.55112e-17
678 1 86.6524 113.979 -5.55112e-17
679 1 87.0325 65.3541 -5.55112e-17
680 2 71.7913 13.3666 -5.55112e-17
681 1 5.29071 9.06339 -5.55112e-17
682 1 141.961 171.737 -5.55112e-17
683 2 95.9679 123.774 -5.55112e-17
684 1 23.5734 180.033 -5.55112e-17
685 1 84.0245 206.596 -5.55112e-17
686 1 142.689 159.567 -5.55112e-17
687 1 107.78 53.3697 -5.55112e-17
688 1 151.631 96.82 -5.55112e-17
689 2 10.2804 139.531 -5.55112e-17
690 1 48.0887 120.632 -5.55112e-17
691 2 64.5151 115.242 -5.55112e-17
692 2 180.572 179.277 -5.55112e-17
693 1 161.11 95.9556 -5.55112e-17
694 2 147.157 149.919 -5.55112e-17
695 2 187.86 36.6864 -5.55112e-17
696 2 31.5919 82.4497 -5.55112e-17
697 1 104.124 36.0091 -5.55112e-17
698 2 41.2133 18.4033 -5.55112e-17
699 1 56.9312 202.612 -5.55112e-17
700 2 17.2873 126.248 -5.55112e-17
701 2 29.7256 65.5781 -5.55112e-17
702 1 160.822 9.66195 -5.55112e-17
703 1 196.01 61.0913 -5.55112e-17
704 1 159.552 122.04 -5.55112e-17
705 1 43.3164 120.196 -5.55112e-17
706 1 75.5972 161.258 -5.55112e-17
707 1 182.003 66.9192 -5.55112e-17
708 2 195.169 101.452 -5.55112e-17
709 1 54.3841 159.907 -5.55112e-17
710 2 91.8572 16.3092 -5.55112e-17
711 2 218.417 141.594 -5.55112e-17
712 1 84.5273 213.355 -5.55112e-17
713 1 5.14196 152.25 -5.55112e-17
714 2 145.037 147.543 -5.55112e-17
715 2 132.772 86.982 -5.55112e-17
716 1 88.9987 60.0111 -5.55112e-17
717 1 15.522 61.0276 -5.55112e-17
718 2 78.6791 99.4487 -5.55112e-17
719 1 68.5051 202.514 -5.55112e-17
720 2 51.6597 197.286 -5.55112e-17
721 2 43.9455 213.188 -5.55112e-17
722 2 65.228 138.218 -5.55112e-17
723 2 15.5446 165.597 -5.55112e-17
724 2 201.94 106.916 -5.55112e-17
725 2 22.0728 49.9144 -5.55112e-17
726 2 177.617 123.874 -5.55112e-17
727 2 34.9104 109.834 -5.55112e-17
728 1 176.339 77.2981 -5.55112e-17
729 2 167.351 131.438 -5.55112e-17
730 2 175.132 94.5946 -5.55112e-17
731 1 9.69171 23.4089 -5.55112e-17
732 2 97.6916 87.6429 -5.55112e-17
733 2 147.937 146.85 -5.55112e-17
734 2 59.1969 192.062 -5.55112e-17
735 2 149.087 71.6461 -5.55112e-17
736 1 182.36 177.116 -5.55112e-17
737 2 48.7095 40.1099 -5.55112e-17
738 2 71.1109 207.517 -5.55112e-17
739 2 185.76 131.132 -5.55112e-17
740 2 40.085 115.639 -5.55112e-17
741 2 200.181 113.519 -5.55112e-17
742 1 71.5909 98.9727 -5.55112e-17
743 2 78.7825 75.9512 -5.55112e-17
744 1 147.074 49.8451 -5.55112e-17
745 2 15.7026 75.7645 -5.55112e-17
746 1 217.996 121.305 -5.55112e-17
747 1 98.6109 163.336 -5.55112e-17
748 2 69.8684 197.588 -5.55112e-17
749 1 213.739 166.398 -5.55112e-17
750 1 139.347 147.77 -5.55112e-17
751 1 142.878 88.8743 -5.55112e-17
752 2 195.161 168.312 -5.55112e-17
753 1 37.4583 180.48 -5.55112e-17
754 2 65.8133 81.0884 -5.55112e-17
755 1 6.53297 80.879 -5.55112e-17
756 2 178.273 58.3073 -5.55112e-17
757 1 110.937 15.1106 -5.55112e-17
758 2 99.4918 27.9928 -5.55112e-17
759 1 95.8446 133.43 -5.55112e-17
760 1 171.342 61.8979 -5.55112e-17
761 2 213.037 100.727 -5.55112e-17
762 1 178.103 105.798 -5.55112e-17
763 2 6.26932 157.529 -5.55112e-17
764 2 43.6042 188.259 -5.55112e-17
765 1 21.7351 160.129 -5.55112e-17
766 2 100.304 47.951 -5.55112e-17
767 2 206.408 148.642 -5.55112e-17
768 2 71.9279 62.0887 -5.55112e-17
769 2 188.178 98.1613 -5.55112e-17
770 1 133.9 18.1861 -5.55112e-17
771 1 64.5246 63.5291 -5.55112e-17
772 1 129.134 0.284635 -5.55112e-17
773 2 167.19 172.111 -5.55112e-17
774 1 88.0813 86.8764 -5.55112e-17
775 1 102.725 76.2083 -5.55112e-17
776 2 192.481 103.072 -5.55112e-17
777 2 42.413 80.0045 -5.55112e-17
778 1 83.2973 12.6502 -5.55112e-17
779 1 47.6982 61.5207 -5.55112e-17
780 2 83.5868 49.8981 -5.55112e-17
781 1 25.8445 171.378 -5.55112e-17
782 2 123.14 170.265 -5.55112e-17
783 1 74.6979 63.0227 -5.55112e-17
784 2 96.6229 110.822 -5.55112e-17
785 1 204.561 82.3072 -5.55112e-17
786 1 41.3887 7.21941 -5.55112e-17
787 2 38.0524 209.006 -5.55112e-17
788 2 164.903 180.436 -5.55112e-17
789 2 18.4838 147.019 -5.55112e-17
790 2 77.3487 7.61369 -5.55112e-17
791 2 186.615 54.0258 -5.55112e-17
792 1 212.586 132.454 -5.55112e-17
793 1 96.9654 171.759 -5.55112e-17
794 2 209.826 6.82766 -5.55112e-17
795 2 10.9007 190.995 -5.55112e-17
796 1 69.1301 214.965 -5.55112e-17
797 1 46.4591 32.8331 -5.55112e-17
798 1 213.128 55.9064 -5.55112e-17
799 2 105.996 155.64 -5.55112e-17
800 1 56.9653 37.2275 -5.55112e-17
801 2 68.0847 85.0196 -5.55112e-17
802 1 90.9815 217.027 -5.55112e-17
803 1 143.211 24.7247 -5.55112e-17
804 1 209.332 124.799 -5.55112e-17
805 2 183.217 117.745 -5.55112e-17
806 2 178.386 158.084 -5.55112e-17
807 2 209.049 29.2248 -5.55112e-17
808 2 76.4906 144.734 -5.55112e-17
809 1 176.159 63.5019 -5.55112e-17
810 2 24.2815 173.229 -5.55112e-17
811 2 180.376 55.7916 -5.55112e-17
812 1 122.213 185.17 -5.55112e-17
813 1 21.87 95.7283 -5.55112e-17
814 1 3.11817 204.847 -5.55112e-17
815 1 146.328 32.1311 -5.55112e-17
816 1 206.992 51.2581 -5.55112e-17
817 2 63.0862 71.0845 -5.55112e-17
818 2 29.1054 123.148 -5.55112e-17
819 2 211.061 68.1568 -5.55112e-17
820 1 9.90223 59.0188 -5.55112e-17
821 1 64.9083 58.1112 -5.55112e-17
822 2 131.533 34.4033 -5.55112e-17
823 1 183.591 89.7494 -5.55112e-17
824 1 175.266 89.9577 -5.55112e-17
825 1 160.551 190.974 -5.55112e-17
826 2 178.021 82.1405 -5.55112e-17
827 2 102.499 27.4654 -5.55112e-17
828 1 50.2712 91.5254 -5.55112e-17
829 2 127.308 92.7651 -5.55112e-17
830 1 3.82233 156.745 -5.55112e-17
831 2 183.499 217.783 -5.55112e-17
832 2 26.769 51.858 -5.55112e-17
833 2 96.5238 41.7311 -5.55112e-17
834 1 70.8742 163.779 -5.55112e-17
835 1 184.704 141.293 -5.55112e-17
836 1 153.195 69.2318 -5.55112e-17
837 2 167.594 92.2969 -5.55112e-17
838 2 91.897 26.519 -5.55112e-17
839 1 39.257 31.9805 -5.55112e-17
840 2 13.4106 117.256 -5.55112e-17
841 2 201.579 10.4567 -5.55112e-17
842 1 174.133 157.301 -5.55112e-17
843 1 204.795 29.9333 -5.55112e-17
844 2 8.40177 25.654 -5.55112e-17
845 1 46.927 150.702 -5.55112e-17
846 2 127.791 211.322 -5.55112e-17
847 1 88.6422 143.195 -5.55112e-17
848 2 112.314 9.23811 -5.55112e-17
849 1 25.1736 32.8425 -5.55112e-17
850 2 59.9154 67.1627 -5.55112e-17
851 2 216.138 31.0249 -5.55112e-17
852 1 137.788 183.012 -5.55112e-17
853 1 185.83 104.994 -5.55112e-17
854 2 104.308 144.745 -5.55112e-17
855 2 165.417 120.891 -5.55112e-17
856 1 77.8952 160.17 -5.55112e-17