ITEM: TIMESTEP
0
ITEM: NUMBER OF ATOMS
7200
ITEM: BOX BOUNDS xy xz yz pp pp pp
0.0000000000000000e+00 2.1900000000000000e+02 0.0000000000000000e+00
0.0000000000000000e+00 2.1900000000000000e+02 0.0000000000000000e+00
-3.6499999999999999e-01 3.6499999999999999e-01 0.0000000000000000e+00
ITEM: ATOMS id type x y z
1 1 87.9148 112.885 -5.55112e-17
2 2 38.3253 77.8586 -5.55112e-17
3 2 183.423 159.756 -5.55112e-17
4 1 149.919 16.929 -5.55112e-17
5 1 136.171 121.948 -5.55112e-17
6 1 13.1751 201.572 -5.55112e-17
7 2 180.401 2.53192 -5.55112e-17
8 2 82.0901 122.452 -5.55112e-17
9 1 134.875 33.1328 -5.55112e-17
10 2 209.738 29.6344 -5.55112e-17
11 2 202.112 72.6488 -5.55112e-17
12 1 60.0686 104.673 -5.55112e-17
13 2 141.563 10.0547 -5.55112e-17
14 1 157.908 26.8581 -5.55112e-17
15 2 45.1899 22.7178 -5.55112e-17
16 2 180.242 88.0052 -5.55112e-17
17 1 47.4228 182.821 -5.55112e-17
18 2 204.308 80.1288 -5.55112e-17
19 1 195.388 56.0489 -5.55112e-17
20 1 20.3348 162.148 -5.55112e-17
21 1 16.7328 204.721 -5.55112e-17
22 2 138.306 134.543 -5.55112e-17
23 2 63.5734 198.241 -5.55112e-17
24 2 109.241 28.7023 -5.55112e-17
25 2 56.0701 18.5299 -5.55112e-17
26 2 153.304 207.982 -5.55112e-17
27 1 170.151 198.589 -5.55112e-17
28 2 162.336 192.521 -5.55112e-17
29 2 84.198 14.143 -5.55112e-17
30 2 100.505 111.115 -5.55112e-17
31 2 173.886 54.3884 -5.55112e-17
32 1 164.543 183.58 -5.55112e-17
33 2 153.912 61.1737 -5.55112e-17
34 2 42.4424 126.4 -5.55112e-17
35 2 214.181 24.3917 -5.55112e-17
36 1 116.437 170.921 -5.55112e-17
37 1 76.6411 141.818 -5.55112e-17
38 2 152.453 22.0503 -5.55112e-17
39 1 49.388 218.809 -5.55112e-17
40 2 176.878 95.1782 -5.55112e-17
41 1 39.1271 207.38 -5.55112e-17
42 1 82.3634 96.3801 -5.55112e-17
43 1 174.406 192.561 -5.55112e-17
44 1 203.047 156.103 -5.55112e-17
45 2 98.421 45.2752 -5.55112e-17
46 1 71.2708 74.8339 -5.55112e-17
47 2 96.0411 96.7975 -5.55112e-17
48 2 187.202 133.231 -5.55112e-17
49 1 91.4339 218.229 -5.55112e-17
50 2 41.5186 143.788 -5.55112e-17
51 1 134.28 154.323 -5.55112e-17
52 1 53.0311 71.885 -5.55112e-17
53 2 118.659 46.0922 -5.55112e-17
54 1 157.79 89.544 -5.55112e-17
55 2 149.055 188.442 -5.55112e-17
56 1 48.8141 192.006 -5.55112e-17
57 2 36.5323 5.98357 -5.55112e-17
58 1 192.182 83.4558 -5.55112e-17
59 1 175.284 36.2588 -5.55112e-17
60 2 169.526 174.124 -5.55112e-17
61 1 91.9057 59.8732 -5.55112e-17
62 1 115.313 24.5681 -5.55112e-17
63 2 154.534 172.813 -5.55112e-17
64 1 26.1584 146.78 -5.55112e-17
65 2 163.404 207.35 -5.55112e-17
66 2 66.4527 182.453 -5.55112e-17
67 2 5.03348 43.0973 -5.55112e-17
68 1 179.142 90.3474 -5.55112e-17
69 2 146.279 148.24 -5.55112e-17
70 1 101.283 77.0131 -5.55112e-17
71 1 79.6041 162.449 -5.55112e-17
72 2 48.7685 168.147 -5.55112e-17
73 2 178.611 40.6328 -5.55112e-17
74 2 190.245 202.961 -5.55112e-17
75 1 179.769 188.271 -5.55112e-17
76 2 174.157 129.242 -5.55112e-17
77 2 58.2443 169.671 -5.55112e-17
78 1 21.6073 31.9739 -5.55112e-17
79 2 101.299 11.5439 -5.55112e-17
80 1 33.0657 80.4876 -5.55112e-17
81 1 142.403 143.834 -5.55112e-17
82 1 202.269 97.4887 -5.55112e-17
83 1 212.437 128.48 -5.55112e-17
84 2 71.0531 52.5632 -5.55112e-17
85 2 33.5532 180.196 -5.55112e-17
86 2 57.3058 87.3733 -5.55112e-17
87 2 111.968 94.9476 -5.55112e-17
88 1 132.005 129.709 -5.55112e-17
89 2 181.635 18.3691 -5.55112e-17
90 2 190.818 58.8787 -5.55112e-17
91 2 23.549 186.36 -5.55112e-17
92 1 2.25211 211.782 -5.55112e-17
93 2 208.179 205.683 -5.55112e-17
94 2 8.36095 75.2245 -5.55112e-17
95 1 163.462 93.1371 -5.55112e-17
96 2 216.029 85.4695 -5.55112e-17
97 2 53.0428 197.966 -5.55112e-17
98 2 185.673 128.213 -5.55112e-17
99 1 136.892 29.3286 -5.55112e-17
100 2 124.944 199.345 -5.55112e-17
101 1 207.972 45.3514 -5.55112e-17
102 1 28.4213 162.671 -5.55112e-17
103 2 95.8374 118.219 -5.55112e-17
104 2 34.1032 7.15574 -5.55112e-17
105 1 182.395 75.4364 -5.55112e-17
106 1 106.645 212.922 -5.55112e-17
107 1 2.53273 29.401 -5.55112e-17
108 1 189.65 154 -5.55112e-17
109 2 164.474 126.094 -5.55112e-17
110 2 74.8122 15.3916 -5.55112e-17
111 1 170.643 111.184 -5.55112e-17
112 2 212.523 11.7663 -5.55112e-17
113 1 39.2849 199.838 -5.55112e-17
114 1 181.825 112.893 -5.55112e-17
115 2 139.327 18.8372 -5.55112e-17
116 2 49.9557 19.9888 -5.55112e-17
117 1 136.643 218.309 -5.55112e-17
118 1 0.643134 198.669 -5.55112e-17
119 2 182.41 104.475 -5.55112e-17
120 2 164.917 9.9928 -5.55112e-17
121 1 123.99 56.8588 -5.55112e-17
122 2 146.513 184.719 -5.55112e-17
123 2 57.4944 104.752 -5.55112e-17
124 1 161.651 118.938 -5.55112e-17
125 1 197.402 54.1194 -5.55112e-17
126 2 29.6077 89.8398 -5.55112e-17
127 2 199.125 47.0318 -5.55112e-17
128 1 96.5535 139.742 -5.55112e-17
129 1 51.6982 125.637 -5.55112e-17
130 2 31.5934 8.59996 -5.55112e-17
131 1 68.4001 98.8348 -5.55112e-17
132 1 159.296 194.274 -5.55112e-17
133 1 210.095 155.015 -5.55112e-17
134 1 207.828 33.501 -5.55112e-17
135 2 24.1956 62.4187 -5.55112e-17
136 1 77.2386 61.3125 -5.55112e-17
137 1 114.506 22.4965 -5.55112e-17
138 2 157.909 92.1569 -5.55112e-17
139 1 89.0594 91.9203 -5.55112e-17
140 1 159.032 201.889 -5.55112e-17
141 1 8.68125 72.5982 -5.55112e-17
142 1 18.2343 107.01 -5.55112e-17
143 1 52.432 127.941 -5.55112e-17
144 1 134.453 86.7354 -5.55112e-17
145 2 150.812 12.4347 -5.55112e-17
146 1 168.926 109.971 -5.55112e-17
147 2 64.6149 109.894 -5.55112e-17
148 1 91.624 32.7544 -5.55112e-17
149 1 73.0209 151.698 -5.55112e-17
150 2 51.2144 163.148 -5.55112e-17
151 1 152.772 117.314 -5.55112e-17
152 1 217.147 210.969 -5.55112e-17
153 2 89.301 60.7798 -5.55112e-17
154 1 126.839 86.8569 -5.55112e-17
155 2 155.529 206.005 -5.55112e-17
156 2 114.156 169.573 -5.55112e-17
157 2 89.9174 195.833 -5.55112e-17
158 2 21.6818 69.5035 -5.55112e-17
159 2 63.1671 163.302 -5.55112e-17
160 2 136.408 15.9717 -5.55112e-17
161 2 169.027 63.1505 -5.55112e-17
162 1 192.828 13.9325 -5.55112e-17
163 1 84.4753 90.0749 -5.55112e-17
164 2 143.152 131.08 -5.55112e-17
165 1 206.685 195.695 -5.55112e-17
166 2 131.098 166.472 -5.55112e-17
167 1 181.244 50.2959 -5.55112e-17
168 1 49.342 28.9372 -5.55112e-17
169 2 25.994 125.048 -5.55112e-17
170 1 48.6286 170.725 -5.55112e-17
171 1 88.5726 178.397 -5.55112e-17
172 1 60.3466 175.046 -5.55112e-17
173 1 198.356 39.136 -5.55112e-17
174 2 106.855 81.3615 -5.55112e-17
175 2 44.1511 186.625 -5.55112e-17
176 1 62.6385 154.375 -5.55112e-17
177 2 49.2499 4.54461 -5.55112e-17
178 1 26.2668 66.3291 -5.55112e-17
179 2 39.3878 54.71 -5.55112e-17
180 1 97.4378 160.12 -5.55112e-17
181 1 124.782 168.89 -5.55112e-17
182 1 115.762 147.966 -5.55112e-17
183 1 47.3625 142.208 -5.55112e-17
184 2 187.861 114.531 -5.55112e-17
185 2 168.001 34.3558 -5.55112e-17
186 2 111.789 53.9035 -5.55112e-17
187 2 190.042 199.507 -5.55112e-17
188 2 199.604 182.836 -5.55112e-17
189 1 104.845 127.104 -5.55112e-17
190 1 149.747 38.3988 -5.55112e-17
191 2 29.4086 52.367 -5.55112e-17
192 2 45.024 32.7024 -5.55112e-17
193 1 82.8537 194.383 -5.55112e-17
194 1 29.3599 218.663 -5.55112e-17
195 2 80.2855 120.082 -5.55112e-17
196 1 31.4073 76.3561 -5.55112e-17
197 2 165.011 34.5406 -5.55112e-17
198 2 166.049 78.4557 -5.55112e-17
199 2 157.077 75.2891 -5.55112e-17
200 2 108.635 198.103 -5.55112e-17
201 2 74.1086 22.4471 -5.55112e-17
202 1 111.495 8.25113 -5.55112e-17
203 1 47.3437 14.884 -5.55112e-17
204 2 217.694 217.875 -5.55112e-17
205 2 174.267 151.512 -5.55112e-17
206 2 162.247 211.9 -5.55112e-17
207 1 15.9159 163.793 -5.55112e-17
208 2 175.283 204.921 -5.55112e-17
209 2 51.0364 51.3425 -5.55112e-17
210 1 91.6174 100.387 -5.55112e-17
211 1 84.6404 95.1056 -5.55112e-17
212 1 66.166 97.0619 -5.55112e-17
213 1 12.1463 194.877 -5.55112e-17
214 2 99.0822 1.41815 -5.55112e-17
215 1 174.546 38.5194 -5.55112e-17
216 1 128.131 74.4185 -5.55112e-17
217 1 35.6801 68.4619 -5.55112e-17
218 2 133.981 97.2826 -5.55112e-17
219 2 70.4972 87.832 -5.55112e-17
220 1 71.903 35.0213 -5.55112e-17
221 2 80.4329 5.84216 -5.55112e-17
222 1 164.53 76.3929 -5.55112e-17
223 1 205.931 99.6847 -5.55112e-17
224 2 120.591 84.7781 -5.55112e-17
225 2 148.853 120.49 -5.55112e-17
226 1 58.2967 196.728 -5.55112e-17
227 2 27.0711 172.436 -5.55112e-17
228 2 98.1035 106.161 -5.55112e-17
229 1 163.631 52.384 -5.55112e-17
230 1 19.5098 15.4436 -5.55112e-17
231 2 143.656 83.1304 -5.55112e-17
232 1 5.94813 101.49 -5.55112e-17
233 2 46.9282 172.744 -5.55112e-17
234 1 25.9734 185.279 -5.55112e-17
235 1 107.491 73.7871 -5.55112e-17
236 2 24.8765 120.118 -5.55112e-17
237 2 90.9017 128.136 -5.55112e-17
238 2 130.335 125.781 -5.55112e-17
239 1 156.056 33.5211 -5.55112e-17
240 1 116.84 140.354 -5.55112e-17
241 2 6.68263 190.511 -5.55112e-17
242 1 147.157 114.248 -5.55112e-17
243 2 118.372 111.673 -5.55112e-17
244 2 200.816 157.919 -5.55112e-17
245 1 91.3127 95.8991 -5.55112e-17
246 2 142.928 117.775 -5.55112e-17
247 2 143.343 26.0941 -5.55112e-17
248 1 47.7331 189.8 -5.55112e-17
249 1 216.418 94.9034 -5.55112e-17
250 1 96.4517 135.225 -5.55112e-17
251 2 67.9438 150.274 -5.55112e-17
252 1 172.179 145.837 -5.55112e-17
253 2 13.1852 164.169 -5.55112e-17
254 2 52.6235 187.674 -5.55112e-17
255 2 0.147283 81.1585 -5.55112e-17
256 1 31.2813 205.669 -5.55112e-17
257 2 17.5559 157.533 -5.55112e-17
258 1 210.027 168.538 -5.55112e-17
259 2 115.258 54.1549 -5.55112e-17
260 1 192.456 147.185 -5.55112e-17
261 2 178.637 119.13 -5.55112e-17
262 2 171.361 108.856 -5.55112e-17
263 2 134.158 18.0156 -5.55112e-17
264 1 55.9676 138.599 -5.55112e-17
265 1 96.5111 201.816 -5.55112e-17
266 1 106.461 117.397 -5.55112e-17
267 2 184.491 18.9043 -5.55112e-17
268 1 209.736 144.037 -5.55112e-17
269 2 79.0143 189.971 -5.55112e-17
270 2 193.069 171.078 -5.55112e-17
271 2 167.202 203.047 -5.55112e-17
272 1 87.2642 62.404 -5.55112e-17
273 1 15.6651 80.6861 -5.55112e-17
274 1 0.415528 116.889 -5.55112e-17
275 1 218.086 144.45 -5.55112e-17
276 1 125.492 20.3551 -5.55112e-17
277 1 52.787 181.743 -5.55112e-17
278 2 167.165 178.541 -5.55112e-17
279 2 201.314 50.8078 -5.55112e-17
280 1 127.268 29.2167 -5.55112e-17
281 2 11.2781 189.186 -5.55112e-17
282 2 24.1793 51.8923 -5.55112e-17
283 2 213.604 186.944 -5.55112e-17
284 1 18.1034 186.083 -5.55112e-17
285 1 6.44074 89.1396 -5.55112e-17
286 2 133.032 109.734 -5.55112e-17
287 2 101.62 45.2195 -5.55112e-17
288 1 127.634 130.844 -5.55112e-17
289 2 99.9065 47.8886 -5.55112e-17
290 1 72.4354 86.0392 -5.55112e-17
291 2 174.014 48.992 -5.55112e-17
292 1 55.2974 52.2507 -5.55112e-17
293 1 195.044 53.0988 -5.55112e-17
294 1 185.351 95.4647 -5.55112e-17
295 2 182.401 192.783 -5.55112e-17
296 1 140.902 152.264 -5.55112e-17
297 1 104.952 146.186 -5.55112e-17
298 2 141.217 149.972 -5.55112e-17
299 1 42.2741 90.469 -5.55112e-17
300 2 101.11 14.9247 -5.55112e-17
301 2 58.2418 8.387 -5.55112e-17
302 2 24.4157 73.4917 -5.55112e-17
303 1 204.591 56.1735 -5.55112e-17
304 1 159.963 105.362 -5.55112e-17
305 1 119.896 173.771 -5.55112e-17
306 2 175.956 70.5206 -5.55112e-17
307 2 129.67 176.748 -5.55112e-17
308 2 182.742 4.61233 -5.55112e-17
309 1 84.3756 131.608 -5.55112e-17
310 1 3.49104 11.3444 -5.55112e-17
311 1 27.2014 169.606 -5.55112e-17
312 2 146.114 124.567 -5.55112e-17
313 2 121.296 160.363 -5.55112e-17
314 1 196.295 195.207 -5.55112e-17
315 2 104.13 4.36598 -5.55112e-17
316 1 80.1428 24.3664 -5.55112e-17
317 1 36.5165 41.7736 -5.55112e-17
318 1 156.031 122.748 -5.55112e-17
319 2 76.8744 49.5749 -5.55112e-17
320 1 20.7743 149.573 -5.55112e-17
321 1 107.376 174.24 -5.55112e-17
322 1 65.7808 209.91 -5.55112e-17
323 2 62.464 90.5275 -5.55112e-17
324 2 54.5032 69.8538 -5.55112e-17
325 2 7.39892 55.7624 -5.55112e-17
326 1 166.596 69.8328 -5.55112e-17
327 1 84.6223 110.503 -5.55112e-17
328 2 6.84928 162.824 -5.55112e-17
329 2 217.402 156.69 -5.55112e-17
330 2 120.095 104.549 -5.55112e-17
331 2 212.779 169.164 -5.55112e-17
332 2 99.5565 183.792 -5.55112e-17
333 2 187.004 154.917 -5.55112e-17
334 2 45.8846 56.8361 -5.55112e-17
335 1 8.55945 203.775 -5.55112e-17
336 2 33.2942 157.846 -5.55112e-17
337 2 96.5684 176.337 -5.55112e-17
338 1 207.492 176.732 -5.55112e-17
339 2 108.578 192.492 -5.55112e-17
340 2 184.896 84.1148 -5.55112e-17
341 2 32.7569 121.09 -5.55112e-17
342 2 144.222 103.22 -5.55112e-17
343 2 199.148 189.795 -5.55112e-17
344 1 140.531 130.324 -5.55112e-17
345 2 68.7245 188.041 -5.55112e-17
346 2 38.6156 134.598 -5.55112e-17
347 1 155.567 185.172 -5.55112e-17
348 1 79.3194 50.5632 -5.55112e-17
349 2 110.618 185.704 -5.55112e-17
350 2 192.095 152.87 -5.55112e-17
351 1 177.5 88.6202 -5.55112e-17
352 1 121.279 45.5073 -5.55112e-17
353 2 159.163 134.707 -5.55112e-17
354 2 204.909 92.8312 -5.55112e-17
355 1 45.2808 1.10782 -5.55112e-17
356 2 94.293 206.616 -5.55112e-17
357 1 56.6752 3.55387 -5.55112e-17
358 1 66.8127 23.9609 -5.55112e-17
359 1 10.2152 119.792 -5.55112e-17
360 1 44.5639 91.5888 -5.55112e-17
361 2 75.9812 172.404 -5.55112e-17
362 2 180.96 95.3415 -5.55112e-17
363 1 16.9775 93.7591 -5.55112e-17
364 2 86.6526 64.9087 -5.55112e-17
365 1 214.029 142.108 -5.55112e-17
366 1 72.6295 14.0109 -5.55112e-17
367 1 78.4514 76.1859 -5.55112e-17
368 1 5.44836 165.29 -5.55112e-17
369 2 14.5509 94.2484 -5.55112e-17
370 1 150.486 99.0194 -5.55112e-17
371 2 207.804 154.169 -5.55112e-17
372 1 44.5741 94.2785 -5.55112e-17
373 2 136.612 172.737 -5.55112e-17
374 2 209.193 174.96 -5.55112e-17
375 1 154.936 76.1203 -5.55112e-17
376 1 94.0654 66.2701 -5.55112e-17
377 2 48.7263 165.515 -5.55112e-17
378 2 150.953 60.035 -5.55112e-17
379 2 203.908 48.4411 -5.55112e-17
380 1 7.09567 70.858 -5.55112e-17
381 1 139.181 147.924 -5.55112e-17
382 1 84.5383 211.931 -5.55112e-17
383 1 199.983 31.8857 -5.55112e-17
384 2 67.5162 88.9499 -5.55112e-17
385 1 16.0289 43.0467 -5.55112e-17
386 2 160.158 187.05 -5.55112e-17
387 1 24.4963 177.681 -5.55112e-17
388 1 189.132 90.1064 -5.55112e-17
389 2 187.875 57.4578 -5.55112e-17
390 1 6.36233 187.688 -5.55112e-17
391 1 123.491 155.46 -5.55112e-17
392 2 36.5132 47.6527 -5.55112e-17
393 2 190.79 178.906 -5.55112e-17
394 1 68.1035 68.3354 -5.55112e-17
395 1 39.8044 141.699 -5.55112e-17
396 2 200.199 119.03 -5.55112e-17
397 1 96.7564 207.716 -5.55112e-17
398 2 162.013 75.3323 -5.55112e-17
399 2 41.3594 36.314 -5.55112e-17
400 2 201.779 144.048 -5.55112e-17
401 2 54.7951 98.2329 -5.55112e-17
402 1 65.9841 1.13436 -5.55112e-17
403 1 45.5313 54.0137 -5.55112e-17
404 2 197.057 44.8778 -5.55112e-17
405 1 54.7193 40.8671 -5.55112e-17
406 2 101.639 202.178 -5.55112e-17
407 1 39.9868 195.335 -5.55112e-17
408 1 146.982 111.955 -5.55112e-17
409 2 109.153 4.04829 -5.55112e-17
410 2 214.671 216.286 -5.55112e-17
411 1 168.194 112.19 -5.55112e-17
412 1 30.8046 68.9892 -5.55112e-17
413 1 76.3889 127.027 -5.55112e-17
414 2 1.81324 174.432 -5.55112e-17
415 1 125.01 36.0301 -5.55112e-17
416 1 49.2776 36.026 -5.55112e-17
417 2 103.708 129.505 -5.55112e-17
418 2 51.8661 143.034 -5.55112e-17
419 2 217.672 12.1346 -5.55112e-17
420 2 16.6156 114.067 -5.55112e-17
421 1 197.965 18.4141 -5.55112e-17
422 1 30.855 151.742 -5.55112e-17
423 2 181.019 195.452 -5.55112e-17
424 2 82.1076 114.738 -5.55112e-17
425 2 7.67807 83.9352 -5.55112e-17
426 1 1.92851 89.9109 -5.55112e-17
427 2 47.6792 72.0222 -5.55112e-17
428 1 170.482 1.04946 -5.55112e-17
429 2 173.331 91.8799 -5.55112e-17
430 2 205.962 58.0782 -5.55112e-17
431 1 68.2863 216.026 -5.55112e-17
432 2 176.763 197.11 -5.55112e-17
433 1 142.516 169.397 -5.55112e-17
434 1 188.397 0.0685104 -5.55112e-17
435 1 138.616 64.5256 -5.55112e-17
436 2 46.4796 79.2193 -5.55112e-17
437 2 74.1041 51.6681 -5.55112e-17
438 2 100.011 37.2144 -5.55112e-17
439 2 65.1153 159.168 -5.55112e-17
440 2 191.12 184.25 -5.55112e-17
441 1 101.415 191.795 -5.55112e-17
442 1 217.813 180.763 -5.55112e-17
443 2 79.6685 21.9183 -5.55112e-17
444 1 166.665 117.179 -5.55112e-17
445 1 178.536 195.281 -5.55112e-17
446 2 193.915 28.5129 -5.55112e-17
447 2 64.8349 142.556 -5.55112e-17
448 2 75.7378 209.59 -5.55112e-17
449 1 159.48 98.7346 -5.55112e-17
450 1 134.847 192.613 -5.55112e-17
451 1 87.8542 21.1769 -5.55112e-17
452 2 163.648 157.998 -5.55112e-17
453 1 2.37649 71.7594 -5.55112e-17
454 1 75.5501 119 -5.55112e-17
455 2 180.926 58.4755 -5.55112e-17
456 1 16.1883 159.775 -5.55112e-17
457 2 83.9433 134.951 -5.55112e-17
458 2 15.4958 168.809 -5.55112e-17
459 2 4.44479 36.7573 -5.55112e-17
460 1 120.537 28.4586 -5.55112e-17
461 1 125.085 129.96 -5.55112e-17
462 1 69.0085 199.682 -5.55112e-17
463 2 100.997 71.6472 -5.55112e-17
464 2 154.449 64.0546 -5.55112e-17
465 1 46.5839 92.6879 -5.55112e-17
466 2 206.035 200.614 -5.55112e-17
467 2 205.72 44.0479 -5.55112e-17
468 2 208.776 141.764 -5.55112e-17
469 2 207.188 114.461 -5.55112e-17
470 2 175.268 26.5432 -5.55112e-17
471 2 218.165 65.4736 -5.55112e-17
472 2 154.646 203.368 -5.55112e-17
473 2 54.6271 217.277 -5.55112e-17
474 2 87.608 40.6309 -5.55112e-17
475 1 191.064 94.1516 -5.55112e-17
476 2 34.8114 139.083 -5.55112e-17
477 1 15.0539 12.4397 -5.55112e-17
478 1 206.831 143.656 -5.55112e-17
479 2 132.054 34.462 -5.55112e-17
480 1 137.389 109.043 -5.55112e-17
481 1 159.056 107.619 -5.55112e-17
482 2 12.602 12.8991 -5.55112e-17
483 1 84.7999 24.6219 -5.55112e-17
484 1 24.2516 206.336 -5.55112e-17
485 2 153.433 180.898 -5.55112e-17
486 1 13.5608 79.4549 -5.55112e-17
487 1 72.2097 135.926 -5.55112e-17
488 1 216.185 187.821 -5.55112e-17
489 1 110.961 47.6513 -5.55112e-17
490 1 20.185 34.2924 -5.55112e-17
491 1 97.9417 69.716 -5.55112e-17
492 2 95.5156 149.72 -5.55112e-17
493 1 100.085 132.569 -5.55112e-17
494 2 149.561 81.6372 -5.55112e-17
495 1 166.739 84.7519 -5.55112e-17
496 1 68.3802 175.211 -5.55112e-17
497 1 20.375 130.233 -5.55112e-17
498 2 187.953 87.7901 -5.55112e-17
499 2 104.33 217.333 -5.55112e-17
500 2 47.6915 1.76864 -5.55112e-17
501 2 149.946 207.111 -5.55112e-17
502 2 77.0519 137.076 -5.55112e-17
503 2 54.3489 200.368 -5.55112e-17
504 2 108.878 71.7959 -5.55112e-17
505 2 77.4083 169.605 -5.55112e-17
506 1 181.115 15.3562 -5.55112e-17
507 2 61.1424 212.025 -5.55112e-17
508 1 208.813 192.202 -5.55112e-17
509 1 217.421 73.3336 -5.55112e-17
510 1 188.217 104.647 -5.55112e-17
511 2 79.8477 70.5873 -5.55112e-17
512 1 189.41 102.43 -5.55112e-17
513 2 128.782 26.7037 -5.55112e-17
514 2 22.3694 77.3532 -5.55112e-17
515 1 109.588 144.391 -5.55112e-17
516 2 48.4686 106.346 -5.55112e-17
517 1 74.9554 122.99 -5.55112e-17
518 2 213.169 207.404 -5.55112e-17
519 1 104.698 115.197 -5.55112e-17
520 2 96.9832 218.538 -5.55112e-17
521 2 184.514 22.0875 -5.55112e-17
522 1 29.4187 18.3573 -5.55112e-17
523 1 97.0728 191.846 -5.55112e-17
524 2 133.6 122.301 -5.55112e-17
525 2 194.353 4.25106 -5.55112e-17
526 2 184.946 114.418 -5.55112e-17
527 1 147.413 0.771781 -5.55112e-17
528 1 213.056 171.698 -5.55112e-17
529 2 35.2601 17.038 -5.55112e-17
530 2 90.1302 77.1338 -5.55112e-17
531 2 154.62 49.3623 -5.55112e-17
532 1 127.643 111.657 -5.55112e-17
533 2 194.689 85.1276 -5.55112e-17
534 1 124.988 54.2724 -5.55112e-17
535 1 5.46331 214.655 -5.55112e-17
536 2 34.3892 111.54 -5.55112e-17
537 1 69.4905 110.138 -5.55112e-17
538 1 147.104 160.752 -5.55112e-17
539 2 45.5574 196.44 -5.55112e-17
540 1 5.66448 183.981 -5.55112e-17
541 1 137.736 119.705 -5.55112e-17
542 1 12.5996 77.5558 -5.55112e-17
543 2 173.244 1.81504 -5.55112e-17
544 1 109.202 110.562 -5.55112e-17
545 1 185.869 33.5458 -5.55112e-17
546 2 176.189 202.03 -5.55112e-17
547 1 173.739 201.24 -5.55112e-17
548 1 203.547 126.317 -5.55112e-17
549 2 69.368 63.6777 -5.55112e-17
550 2 196.946 212.801 -5.55112e-17
551 2 135.507 94.4979 -5.55112e-17
552 1 208.177 85.2202 -5.55112e-17
553 2 192.416 149.86 -5.55112e-17
554 2 68.3732 218.753 -5.55112e-17
555 2 194.389 98.2687 -5.55112e-17
556 1 123.41 75.7944 -5.55112e-17
557 1 100.72 120.78 -5.55112e-17
558 1 197.09 4.2252 -5.55112e-17
559 2 98.5884 144.211 -5.55112e-17
560 2 65.7436 41.3165 -5.55112e-17
561 2 148.169 72.5301 -5.55112e-17
562 2 187.426 31.4128 -5.55112e-17
563 1 104.519 122.412 -5.55112e-17
564 2 107.327 127.398 -5.55112e-17
565 2 21.6055 74.7609 -5.55112e-17
566 2 93.3958 44.7461 -5.55112e-17
567 1 42.2416 64.9991 -5.55112e-17
568 1 110.057 23.7618 -5.55112e-17
569 2 209.468 215.809 -5.55112e-17
570 2 127.963 82.2617 -5.55112e-17
571 2 180.278 8.61336 -5.55112e-17
572 1 159.858 66.1684 -5.55112e-17
573 2 75.1953 90.15 -5.55112e-17
574 2 185.997 50.0913 -5.55112e-17
575 1 93.979 63.6435 -5.55112e-17
576 1 89.599 3.6442 -5.55112e-17
577 1 94.0074 83.4926 -5.55112e-17
578 1 76.177 159.225 -5.55112e-17
579 2 156.634 59.4554 -5.55112e-17
580 1 109.058 146.986 -5.55112e-17
581 1 194.632 120.414 -5.55112e-17
582 2 142.104 3.23178 -5.55112e-17
583 2 86.9091 205.566 -5.55112e-17
584 2 59.4585 101.974 -5.55112e-17
585 1 136.206 8.95555 -5.55112e-17
586 1 179.041 93.3217 -5.55112e-17
587 1 40.9074 42.2279 -5.55112e-17
588 2 198.641 49.8349 -5.55112e-17
589 1 16.9451 111.437 -5.55112e-17
590 2 37.7121 93.516 -5.55112e-17
591 2 67.4338 65.8445 -5.55112e-17
592 1 75.6538 116.73 -5.55112e-17
593 1 154.56 136.884 -5.55112e-17
594 1 98.2766 80.353 -5.55112e-17
595 1 180.012 140.556 -5.55112e-17
596 2 79.2486 92.4086 -5.55112e-17
597 2 70.0533 60.7328 -5.55112e-17
598 2 163.654 120.936 -5.55112e-17
599 2 156.686 190.611 -5.55112e-17
600 2 54.9862 143.213 -5.55112e-17
601 1 125.417 82.0918 -5.55112e-17
602 1 132.413 80.5531 -5.55112e-17
603 2 164.243 167.198 -5.55112e-17
604 1 155.258 85.6283 -5.55112e-17
605 2 125.756 14.6739 -5.55112e-17
606 2 185.778 35.9748 -5.55112e-17
607 2 204.217 191.47 -5.55112e-17
608 2 79.9338 89.1218 -5.55112e-17
609 1 126.843 189.978 -5.55112e-17
610 2 93.3157 78.4101 -5.55112e-17
611 1 29.6073 36.9443 -5.55112e-17
612 1 42.1162 48.1205 -5.55112e-17
613 2 151.493 202.208 -5.55112e-17
614 1 129.217 9.01085 -5.55112e-17
615 1 161.382 100.479 -5.55112e-17
616 2 41.3369 172.327 -5.55112e-17
617 1 166.085 137.517 -5.55112e-17
618 1 87.1361 72.6614 -5.55112e-17
619 1 136.503 97.021 -5.55112e-17
620 2 140.357 41.0997 -5.55112e-17
621 2 157.802 42.1506 -5.55112e-17
622 2 149.282 165.928 -5.55112e-17
623 2 107.269 144.77 -5.55112e-17
624 1 36.0451 100.449 -5.55112e-17
625 2 187.739 151.725 -5.55112e-17
626 1 92.4641 201.949 -5.55112e-17
627 2 201.11 174.081 -5.55112e-17
628 1 165.723 130.612 -5.55112e-17
629 1 216.298 17.132 -5.55112e-17
630 2 94.4223 26.7427 -5.55112e-17
631 2 211.105 77.2568 -5.55112e-17
632 2 201.834 92.2382 -5.55112e-17
633 2 38.9366 37.878 -5.55112e-17
634 2 194.185 81.9611 -5.55112e-17
635 2 11.0829 90.7381 -5.55112e-17
636 1 70.0977 80.1298 -5.55112e-17
637 1 3.43551 124.049 -5.55112e-17
638 1 151.295 40.5379 -5.55112e-17
639 2 38.614 34.3383 -5.55112e-17
640 2 177.079 116.889 -5.55112e-17
641 1 34.847 182.607 -5.55112e-17
642 2 145.251 212.997 -5.55112e-17
643 1 153.981 55.4084 -5.55112e-17
644 2 95.8786 164.051 -5.55112e-17
645 2 105.971 124.983 -5.55112e-17
646 1 122.67 198.2 -5.55112e-17
647 2 159.055 139.225 -5.55112e-17
648 2 158.554 148.943 -5.55112e-17
649 1 174.832 188.502 -5.55112e-17
650 1 46.8834 139.814 -5.55112e-17
651 1 199.375 66.2783 -5.55112e-17
652 2 104.017 117.95 -5.55112e-17
653 2 135.774 139.274 -5.55112e-17
654 1 188.738 177.229 -5.55112e-17
655 1 151.001 26.5817 -5.55112e-17
656 1 172.724 205.934 -5.55112e-17
657 1 155.766 179.821 -5.55112e-17
658 2 161.763 216.313 -5.55112e-17
659 2 176.524 180.281 -5.55112e-17
660 1 106.971 10.358 -5.55112e-17
661 2 51.1863 214.555 -5.55112e-17
662 2 106.386 171.968 -5.55112e-17
663 1 128.66 65.439 -5.55112e-17
664 1 179.517 116.687 -5.55112e-17
665 1 110.946 196.458 -5.55112e-17
666 1 144.57 205.83 -5.55112e-17
667 1 149.756 204.568 -5.55112e-17
668 1 92.5827 167.605 -5.55112e-17
669 1 93.8512 16.6883 -5.55112e-17
670 2 190.649 137.472 -5.55112e-17
671 1 104.016 203.702 -5.55112e-17
672 1 131.388 23.9413 -5.55112e-17
673 2 91.2807 112.713 -5.55112e-17
674 2 103.999 49.7504 -5.55112e-17
675 2 109.347 52.3927 -5.55112e-17
676 1 70.66 212.351 -5.55112e-17
677 2 70.2883 117.764 -5.55112e-17
678 1 34.5295 146.055 -5.55112e-17
679 1 5.71372 11.5931 -5.55112e-17
680 2 82.5657 73.8616 -5.55112e-17
681 1 134.637 171.155 -5.55112e-17
682 1 108.119 169.986 -5.55112e-17
683 2 42.8025 146.91 -5.55112e-17
684 1 6.94231 91.9103 -5.55112e-17
685 1 141.455 216.551 -5.55112e-17
686 1 213.804 38.3114 -5.55112e-17
687 1 97.5939 137.489 -5.55112e-17
688 1 153.054 105.322 -5.55112e-17
689 2 116.846 73.4892 -5.55112e-17
690 1 108.122 165.175 -5.55112e-17
691 2 44.0089 104.392 -5.55112e-17
692 2 211.158 194.296 -5.55112e-17
693 1 206.924 71.2023 -5.55112e-17
694 2 35.7946 71.4439 -5.55112e-17
695 2 53.7304 50.0694 -5.55112e-17
696 2 7.06997 150.633 -5.55112e-17
697 1 6.48264 7.39904 -5.55112e-17
698 2 218.539 90.2953 -5.55112e-17
699 1 59.1345 47.8284 -5.55112e-17
700 2 45.6049 162.02 -5.55112e-17
701 2 200.045 16.7058 -5.55112e-17
702 1 115.716 107.681 -5.55112e-17
703 1 61.6442 165.098 -5.55112e-17
704 1 38.2643 160.39 -5.55112e-17
705 1 27.0781 101.467 -5.55112e-17
706 1 78.6853 37.0426 -5.55112e-17
707 1 114.858 144.249 -5.55112e-17
708 2 211.941 109.68 -5.55112e-17
709 1 46.2985 99.2439 -5.55112e-17
710 2 117.311 68.5606 -5.55112e-17
711 2 171.686 44.5646 -5.55112e-17
712 1 5.05805 78.9493 -5.55112e-17
713 1 113.829 160.628 -5.55112e-17
714 2 87.792 156.416 -5.55112e-17
715 2 189.155 42.7984 -5.55112e-17
716 1 109.072 78.8661 -5.55112e-17
717 1 89.824 135.603 -5.55112e-17
718 2 88.1943 74.9199 -5.55112e-17
719 1 23.5766 126.947 -5.55112e-17
720 2 143.969 56.7715 -5.55112e-17
721 2 111.812 2.264 -5.55112e-17
722 2 24.3619 134.345 -5.55112e-17
723 2 190.472 100.066 -5.55112e-17
724 2 212.852 181.891 -5.55112e-17
725 2 143.775 151.577 -5.55112e-17
726 2 116.313 88.0432 -5.55112e-17
727 2 65.6859 99.671 -5.55112e-17
728 1 211.482 68.1091 -5.55112e-17
729 2 204.51 116.239 -5.55112e-17
730 2 117.684 133.57 -5.55112e-17
731 1 85.1294 55.4863 -5.55112e-17
732 2 180.594 169.682 -5.55112e-17
733 2 158.834 110.239 -5.55112e-17
734 2 21.1816 41.3009 -5.55112e-17
735 2 62.435 100.31 -5.55112e-17
736 1 178.441 185.812 -5.55112e-17
737 2 123.263 164.67 -5.55112e-17
738 2 59.388 76.6388 -5.55112e-17
739 2 135.511 107.461 -5.55112e-17
740 2 163.48 200.051 -5.55112e-17
741 2 218.785 213.071 -5.55112e-17
742 1 176.928 80.9571 -5.55112e-17
743 2 153.399 10.2131 -5.55112e-17
744 1 65.6379 145.086 -5.55112e-17
745 2 17.3538 61.3035 -5.55112e-17
746 1 198.411 24.0202 -5.55112e-17
747 1 214.308 68.4599 -5.55112e-17
748 2 176.58 162.231 -5.55112e-17
749 1 115.199 175.044 -5.55112e-17
750 1 183.554 126.545 -5.55112e-17
751 1 155.649 90.7331 -5.55112e-17
752 2 134.372 189.895 -5.55112e-17
753 1 203.318 77.8686 -5.55112e-17
754 2 15.1931 99.677 -5.55112e-17
755 1 156.154 47.2736 -5.55112e-17
756 2 31.6122 0.933472 -5.55112e-17
757 1 44.5507 110.055 -5.55112e-17
758 2 114.685 43.318 -5.55112e-17
759 1 182.707 152.742 -5.55112e-17
760 1 183.838 45.9736 -5.55112e-17
761 2 193.389 57.5005 -5.55112e-17
762 1 54.3801 111.608 -5.55112e-17
763 2 30.7799 191.361 -5.55112e-17
764 2 195.818 1.77068 -5.55112e-17
765 1 202.292 182.172 -5.55112e-17
766 2 182.168 121.54 -5.55112e-17
767 2 186.958 120.991 -5.55112e-17
768 2 36.5158 1.15318 -5.55112e-17
769 2 131.578 114.898 -5.55112e-17
770 1 212.693 139.964 -5.55112e-17
771 1 140.155 101.633 -5.55112e-17
772 1 104.138 43.9852 -5.55112e-17
773 2 1.13634 182.305 -5.55112e-17
774 1 164.975 135.412 -5.55112e-17
775 1 44.8803 80.9286 -5.55112e-17
776 2 140.328 145.279 -5.55112e-17
777 2 210.574 152.355 -5.55112e-17
778 1 56.9423 69.133 -5.55112e-17
779 1 75.3454 207.093 -5.55112e-17
780 2 54.5891 101.179 -5.55112e-17
781 1 78.1211 143.979 -5.55112e-17
782 2 5.79723 125.121 -5.55112e-17
783 1 214.971 83.1893 -5.55112e-17
784 2 100.307 74.7136 -5.55112e-17
785 1 11.5747 123.725 -5.55112e-17
786 1 81.7784 15.0568 -5.55112e-17
787 2 206.31 111.77 -5.55112e-17
788 2 163.306 30.2279 -5.55112e-17
789 2 89.2251 34.6504 -5.55112e-17
790 2 129.269 154.046 -5.55112e-17
791 2 56.225 38.5892 -5.55112e-17
792 1 71.844 169.458 -5.55112e-17
793 1 146.294 104.947 -5.55112e-17
794 2 143.763 198.659 -5.55112e-17
795 2 0.551117 146.364 -5.55112e-17
796 1 52.654 56.94 -5.55112e-17
797 1 119.999 123.538 -5.55112e-17
798 1 199.444 97.2628 -5.55112e-17
799 2 135.913 84.4781 -5.55112e-17
800 1 25.268 201.952 -5.55112e-17
801 2 197.657 102.594 -5.55112e-17
802 1 123.442 52.348 -5.55112e-17
803 1 142.239 193.871 -5.55112e-17
804 1 11.3511 133.341 -5.55112e-17
805 2 22.7838 194.258 -5.55112e-17
806 2 42.2908 115.156 -5.55112e-17
807 2 2.69597 26.3684 -5.55112e-17
808 2 89.1848 68.8974 -5.55112e-17
809 1 51.7364 18.2281 -5.55112e-17
810 2 89.8946 130.852 -5.55112e-17
811 2 106.717 210.482 -5.55112e-17
812 1 160.872 103.245 -5.55112e-17
813 1 17.6181 98.9673 -5.55112e-17
814 1 166.576 168.246 -5.55112e-17
815 1 84.8752 204.286 -5.55112e-17
816 1 30.6909 126.762 -5.55112e-17
817 2 77.2342 218.425 -5.55112e-17
818 2 129.89 131.581 -5.55112e-17
819 2 192.593 77.4323 -5.55112e-17
820 1 29.2197 7.80302 -5.55112e-17
821 1 20.4152 29.8515 -5.55112e-17
822 2 33.8519 163.921 -5.55112e-17
823 1 201.807 46.3301 -5.55112e-17
824 1 149.381 134.657 -5.55112e-17
825 1 51.293 192.562 -5.55112e-17
826 2 187.787 144.03 -5.55112e-17
827 2 96.5931 154.903 -5.55112e-17
828 1 82.1814 12.4104 -5.55112e-17
829 2 155.153 93.2718 -5.55112e-17
830 1 81.6371 134.786 -5.55112e-17
831 2 202.341 113.998 -5.55112e-17
832 2 19.9627 12.5119 -5.55112e-17
833 2 76.1631 97.3164 -5.55112e-17
834 1 110.132 31.2387 -5.55112e-17
835 1 125.875 99.1608 -5.55112e-17
836 1 16.3567 58.9533 -5.55112e-17
837 2 198.491 41.6219 -5.55112e-17
838 2 53.0308 43.1619 -5.55112e-17
839 1 100.284 100.596 -5.55112e-17
840 2 15.5289 21.8019 -5.55112e-17
841 2 150.143 67.6191 -5.55112e-17
842 1 166.692 210.014 -5.55112e-17
843 1 153.292 157.707 -5.55112e-17
844 2 25.6981 24.249 -5.55112e-17
845 1 163.018 114.064 -5.55112e-17
846 2 85.7649 158.267 -5.55112e-17
847 1 49.7183 127.179 -5.55112e-17
848 2 111.119 202.021 -5.55112e-17
849 1 207.319 108.947 -5.55112e-17
850 2 157.272 177.098 -5.55112e-17
851 2 19.8288 155.065 -5.55112e-17
852 1 26.6301 71.8237 -5.55112e-17
853 1 21.9616 0.233374 -5.55112e-17
854 2 17.2343 14.0333 -5.55112e-17
855 2 37.4277 201.823 -5.55112e-17
856 1 198.664 139.642 -5.55112e-17