ITEM: TIMESTEP
0
ITEM: NUMBER OF ATOMS
7200
ITEM: BOX BOUNDS xy xz yz pp pp pp
0.0000000000000000e+00 2.1900000000000000e+02 0.0000000000000000e+00
0.0000000000000000e+00 2.1900000000000000e+02 0.0000000000000000e+00
-3.6499999999999999e-01 3.6499999999999999e-01 0.0000000000000000e+00
ITEM: ATOMS id type x y z
1 1 122.433 166.167 -5.55112e-17
2 2 31.0608 160.878 -5.55112e-17
3 2 46.0043 155.439 -5.55112e-17
4 1 1.46493 201.847 -5.55112e-17
5 1 64.9592 189.491 -5.55112e-17
6 1 115.601 131.851 -5.55112e-17
7 2 17.7764 124.843 -5.55112e-17
8 2 6.10708 105.506 -5.55112e-17
9 1 116.481 71.2569 -5.55112e-17
10 2 84.3315 177.084 -5.55112e-17
11 2 15.7126 179.792 -5.55112e-17
12 1 192.688 90.6166 -5.55112e-17
13 2 43.7999 186.825 -5.55112e-17
14 1 72.2288 89.6373 -5.55112e-17
15 2 14.4338 196.745 -5.55112e-17
16 2 51.1628 191.847 -5.55112e-17
17 1 151.726 130.267 -5.55112e-17
18 2 196.506 156.644 -5.55112e-17
19 1 96.6118 107.779 -5.55112e-17
20 1 141.74 205.848 -5.55112e-17
21 1 120.396 83.2026 -5.55112e-17
22 2 126.387 178.201 -5.55112e-17
23 2 115.429 146.996 -5.55112e-17
24 2 74.8368 167.23 -5.55112e-17
25 2 110.995 189.995 -5.55112e-17
26 2 120.773 91.2252 -5.55112e-17
27 1 183.259 1.20433 -5.55112e-17
28 2 218.116 124.527 -5.55112e-17
29 2 184.48 163.171 -5.55112e-17
30 2 60.917 68.6902 -5.55112e-17
31 2 138.354 61.2624 -5.55112e-17
32 1 171.609 126.51 -5.55112e-17
33 2 162.426 22.5281 -5.55112e-17
34 2 209.81 1.38369 -5.55112e-17
35 2 0.720862 65.9387 -5.55112e-17
36 1 70.3677 210.849 -5.55112e-17
37 1 80.6183 179.989 -5.55112e-17
38 2 205.621 28.3873 -5.55112e-17
39 1 84.5699 181.759 -5.55112e-17
40 2 148.189 209.126 -5.55112e-17
41 1 216.862 192.657 -5.55112e-17
42 1 49.6268 114.881 -5.55112e-17
43 1 182.577 204.141 -5.55112e-17
44 1 131.827 174.992 -5.55112e-17
45 2 203.742 126.441 -5.55112e-17
46 1 182.609 17.8554 -5.55112e-17
47 2 210.26 150.88 -5.55112e-17
48 2 136.522 187.262 -5.55112e-17
49 1 47.8225 4.68342 -5.55112e-17
50 2 84.8538 57.1861 -5.55112e-17
51 1 16.1032 60.1666 -5.55112e-17
52 1 89.4289 37.1219 -5.55112e-17
53 2 84.5385 54.1976 -5.55112e-17
54 1 29.745 102.995 -5.55112e-17
55 2 124.882 43.6271 -5.55112e-17
56 1 182.251 115.969 -5.55112e-17
57 2 131.91 213.564 -5.55112e-17
58 1 84.2176 88.6323 -5.55112e-17
59 1 204.672 22.9506 -5.55112e-17
60 2 194.75 138.853 -5.55112e-17
61 1 109.316 48.6893 -5.55112e-17
62 1 42.5947 9.68372 -5.55112e-17
63 2 154.395 195.358 -5.55112e-17
64 1 58.0806 25.9634 -5.55112e-17
65 2 141.384 127.23 -5.55112e-17
66 2 123.475 209.063 -5.55112e-17
67 2 0.0994419 2.90572 -5.55112e-17
68 1 175.019 212.167 -5.55112e-17
69 2 89.0345 174.011 -5.55112e-17
70 1 43.6347 165.852 -5.55112e-17
71 1 198.292 138.736 -5.55112e-17
72 2 101.922 179.155 -5.55112e-17
73 2 62.1559 177.901 -5.55112e-17
74 2 163.272 25.7335 -5.55112e-17
75 1 61.613 122.959 -5.55112e-17
76 2 154.707 15.428 -5.55112e-17
77 2 97.328 98.0547 -5.55112e-17
78 1 211.77 143.804 -5.55112e-17
79 2 101.194 169.902 -5.55112e-17
80 1 59.1573 80.7499 -5.55112e-17
81 1 93.5532 140.923 -5.55112e-17
82 1 148.866 102.838 -5.55112e-17
83 1 116.554 202.302 -5.55112e-17
84 2 141.793 73.1857 -5.55112e-17
85 2 74.8762 218.69 -5.55112e-17
86 2 81.0461 174.431 -5.55112e-17
87 2 69.4005 117.151 -5.55112e-17
88 1 144.385 205.141 -5.55112e-17
89 2 93.4176 64.8621 -5.55112e-17
90 2 151.074 153.563 -5.55112e-17
91 2 101.263 94.5781 -5.55112e-17
92 1 182.245 34.5214 -5.55112e-17
93 2 2.32007 117.648 -5.55112e-17
94 2 107.7 211.196 -5.55112e-17
95 1 185.296 5.97669 -5.55112e-17
96 2 186.02 82.7573 -5.55112e-17
97 2 199.095 148.027 -5.55112e-17
98 2 187.604 210.333 -5.55112e-17
99 1 51.8491 35.8536 -5.55112e-17
100 2 141.984 172.755 -5.55112e-17
101 1 135.937 112.431 -5.55112e-17
102 1 129.457 19.671 -5.55112e-17
103 2 6.21825 64.1147 -5.55112e-17
104 2 16.1824 20.7863 -5.55112e-17
105 1 184.561 37.9171 -5.55112e-17
106 1 118.776 102.242 -5.55112e-17
107 1 7.29905 3.20552 -5.55112e-17
108 1 143.811 155.023 -5.55112e-17
109 2 79.9553 191.524 -5.55112e-17
110 2 199.948 195.081 -5.55112e-17
111 1 192.127 59.7659 -5.55112e-17
112 2 55.1461 53.1136 -5.55112e-17
113 1 32.7239 126.654 -5.55112e-17
114 1 111.589 44.3954 -5.55112e-17
115 2 35.2975 10.5226 -5.55112e-17
116 2 151.981 150.423 -5.55112e-17
117 1 111.641 139.074 -5.55112e-17
118 1 214.226 36.0081 -5.55112e-17
119 2 164.048 12.1793 -5.55112e-17
120 2 145.195 87.6565 -5.55112e-17
121 1 78.3736 38.3088 -5.55112e-17
122 2 207.264 36.6029 -5.55112e-17
123 2 95.1112 114.227 -5.55112e-17
124 1 113.57 190.749 -5.55112e-17
125 1 118.623 156.039 -5.55112e-17
126 2 28.8338 36.823 -5.55112e-17
127 2 106.883 142.337 -5.55112e-17
128 1 184.531 97.032 -5.55112e-17
129 1 103.616 71.3765 -5.55112e-17
130 2 207.263 158.302 -5.55112e-17
131 1 212.512 115.575 -5.55112e-17
132 1 75.3665 188.558 -5.55112e-17
133 1 120.743 88.9638 -5.55112e-17
134 1 104.232 77.3104 -5.55112e-17
135 2 27.1993 193.795 -5.55112e-17
136 1 59.307 18.3975 -5.55112e-17
137 1 183.378 82.5159 -5.55112e-17
138 2 51.8239 58.4069 -5.55112e-17
139 1 71.6028 34.8772 -5.55112e-17
140 1 205.712 102.922 -5.55112e-17
141 1 47.32 103.2 -5.55112e-17
142 1 179.022 133.96 -5.55112e-17
143 1 7.3174 94.0581 -5.55112e-17
144 1 104.477 79.5601 -5.55112e-17
145 2 216.494 207.929 -5.55112e-17
146 1 3.72732 26.2736 -5.55112e-17
147 2 28.4663 8.49075 -5.55112e-17
148 1 89.1197 34.8929 -5.55112e-17
149 1 126.104 33.6781 -5.55112e-17
150 2 29.876 96.0561 -5.55112e-17
151 1 178.321 195.236 -5.55112e-17
152 1 46.8656 0.482436 -5.55112e-17
153 2 14.9977 144.492 -5.55112e-17
154 1 112.381 215.702 -5.55112e-17
155 2 156.557 3.37851 -5.55112e-17
156 2 11.1669 172.121 -5.55112e-17
157 2 32.9941 209.795 -5.55112e-17
158 2 8.51268 121.665 -5.55112e-17
159 2 35.1816 80.7321 -5.55112e-17
160 2 88.3779 152.485 -5.55112e-17
161 2 118.273 182.841 -5.55112e-17
162 1 124.717 18.7085 -5.55112e-17
163 1 4.43559 62.0108 -5.55112e-17
164 2 140.797 145.721 -5.55112e-17
165 1 92.0414 167.62 -5.55112e-17
166 2 5.28733 95.1158 -5.55112e-17
167 1 21.585 141.128 -5.55112e-17
168 1 23.2882 216.117 -5.55112e-17
169 2 65.5504 22.1135 -5.55112e-17
170 1 111.529 213.295 -5.55112e-17
171 1 8.92144 155.795 -5.55112e-17
172 1 157.011 22.4907 -5.55112e-17
173 1 43.2964 73.9298 -5.55112e-17
174 2 44.8537 46.9176 -5.55112e-17
175 2 113.231 50.9071 -5.55112e-17
176 1 142.095 156.995 -5.55112e-17
177 2 46.0584 130.707 -5.55112e-17
178 1 10.0142 126.681 -5.55112e-17
179 2 216.919 71.5397 -5.55112e-17
180 1 38.85 107.015 -5.55112e-17
181 1 141.528 100.8 -5.55112e-17
182 1 210.149 15.2604 -5.55112e-17
183 1 74.4522 44.2699 -5.55112e-17
184 2 145.43 105.19 -5.55112e-17
185 2 94.8205 143.476 -5.55112e-17
186 2 127.032 3.37888 -5.55112e-17
187 2 100.952 3.67333 -5.55112e-17
188 2 150.938 56.9092 -5.55112e-17
189 1 200.49 105.169 -5.55112e-17
190 1 201.208 146.747 -5.55112e-17
191 2 21.9803 15.6662 -5.55112e-17
192 2 72.1831 202.735 -5.55112e-17
193 1 213.263 23.3867 -5.55112e-17
194 1 20.3101 166.437 -5.55112e-17
195 2 61.5006 152.271 -5.55112e-17
196 1 140.185 96.2639 -5.55112e-17
197 2 29.4152 57.6735 -5.55112e-17
198 2 165.841 126.022 -5.55112e-17
199 2 170.941 116.811 -5.55112e-17
200 2 30.5282 87.2416 -5.55112e-17
201 2 116.83 178.695 -5.55112e-17
202 1 163.829 166.352 -5.55112e-17
203 1 114.904 136.029 -5.55112e-17
204 2 153.838 26.0695 -5.55112e-17
205 2 20.2419 204.029 -5.55112e-17
206 2 119.616 17.4918 -5.55112e-17
207 1 50.2195 93.7413 -5.55112e-17
208 2 29.4249 62.1466 -5.55112e-17
209 2 193.367 62.4653 -5.55112e-17
210 1 198.441 170.743 -5.55112e-17
211 1 49.0091 144.09 -5.55112e-17
212 1 57.9458 189.665 -5.55112e-17
213 1 63.922 11.2988 -5.55112e-17
214 2 170.767 111.141 -5.55112e-17
215 1 20.6875 157.114 -5.55112e-17
216 1 102.71 124.715 -5.55112e-17
217 1 43.0095 3.97479 -5.55112e-17
218 2 120.427 204.536 -5.55112e-17
219 2 71.6876 61.3737 -5.55112e-17
220 1 3.92357 31.7136 -5.55112e-17
221 2 137.197 71.4804 -5.55112e-17
222 1 23.1651 10.5585 -5.55112e-17
223 1 196.632 16.9386 -5.55112e-17
224 2 53.4366 159.188 -5.55112e-17
225 2 210.361 126.098 -5.55112e-17
226 1 192.27 144.007 -5.55112e-17
227 2 110.672 148.546 -5.55112e-17
228 2 27.6084 44.935 -5.55112e-17
229 1 141.825 198.457 -5.55112e-17
230 1 93.9003 104.853 -5.55112e-17
231 2 107.625 87.0691 -5.55112e-17
232 1 111.291 206.216 -5.55112e-17
233 2 157.991 56.2285 -5.55112e-17
234 1 177.716 21.2888 -5.55112e-17
235 1 91.3738 6.00314 -5.55112e-17
236 2 93.9018 207.928 -5.55112e-17
237 2 9.73459 101.407 -5.55112e-17
238 2 144.037 150.849 -5.55112e-17
239 1 199.463 16.7635 -5.55112e-17
240 1 88.4879 204.286 -5.55112e-17
241 2 45.9875 158.561 -5.55112e-17
242 1 60.3549 154.556 -5.55112e-17
243 2 133.617 139.827 -5.55112e-17
244 2 14.5121 162.425 -5.55112e-17
245 1 19.3447 34.4675 -5.55112e-17
246 2 137.733 97.1065 -5.55112e-17
247 2 126.282 87.9344 -5.55112e-17
248 1 17.3315 115.524 -5.55112e-17
249 1 205.348 196.524 -5.55112e-17
250 1 78.1768 196.42 -5.55112e-17
251 2 116.88 55.5509 -5.55112e-17
252 1 100.086 45.9305 -5.55112e-17
253 2 175.602 166.738 -5.55112e-17
254 2 84.3281 174.155 -5.55112e-17
255 2 81.4915 148.94 -5.55112e-17
256 1 80.0837 141.142 -5.55112e-17
257 2 45.9997 24.5216 -5.55112e-17
258 1 197.401 11.0709 -5.55112e-17
259 2 173.163 33.7618 -5.55112e-17
260 1 190.562 72.3525 -5.55112e-17
261 2 104.47 68.8753 -5.55112e-17
262 2 136.341 64.3003 -5.55112e-17
263 2 174.511 73.9557 -5.55112e-17
264 1 146.249 21.737 -5.55112e-17
265 1 183.25 8.00295 -5.55112e-17
266 1 100.328 50.2003 -5.55112e-17
267 2 65.9272 168.094 -5.55112e-17
268 1 50.8064 216.761 -5.55112e-17
269 2 136.904 214.804 -5.55112e-17
270 2 127.916 31.9541 -5.55112e-17
271 2 79.3391 122.32 -5.55112e-17
272 1 122.122 186.53 -5.55112e-17
273 1 217.493 184.453 -5.55112e-17
274 1 213.483 14.7773 -5.55112e-17
275 1 161.084 187.797 -5.55112e-17
276 1 61.4563 159.958 -5.55112e-17
277 1 108.689 89.5221 -5.55112e-17
278 2 207.251 84.3215 -5.55112e-17
279 2 211.632 165.144 -5.55112e-17
280 1 50.7192 28.5779 -5.55112e-17
281 2 169.894 180.965 -5.55112e-17
282 2 70.6231 213.268 -5.55112e-17
283 2 106.785 70.4073 -5.55112e-17
284 1 137.142 133.209 -5.55112e-17
285 1 30.6645 166.575 -5.55112e-17
286 2 60.662 169.876 -5.55112e-17
287 2 79.2216 33.2257 -5.55112e-17
288 1 83.0531 81.1 -5.55112e-17
289 2 90.196 136.474 -5.55112e-17
290 1 199.256 118.782 -5.55112e-17
291 2 175.995 56.7058 -5.55112e-17
292 1 110.067 204.142 -5.55112e-17
293 1 118.53 63.067 -5.55112e-17
294 1 101.03 131.419 -5.55112e-17
295 2 202.621 203.709 -5.55112e-17
296 1 175.417 175.609 -5.55112e-17
297 1 170.678 145.701 -5.55112e-17
298 2 61.513 149.21 -5.55112e-17
299 1 56.921 128.397 -5.55112e-17
300 2 167.693 21.8447 -5.55112e-17
301 2 45.75 65.6625 -5.55112e-17
302 2 88.4785 189.979 -5.55112e-17
303 1 200.508 210.711 -5.55112e-17
304 1 22.3467 75.5544 -5.55112e-17
305 1 152.165 23.7757 -5.55112e-17
306 2 156.72 141.015 -5.55112e-17
307 2 50.2041 183.294 -5.55112e-17
308 2 27.2012 125.098 -5.55112e-17
309 1 90.399 95.9011 -5.55112e-17
310 1 26.2931 115.376 -5.55112e-17
311 1 131.455 24.4299 -5.55112e-17
312 2 149.042 165.338 -5.55112e-17
313 2 164.537 50.8538 -5.55112e-17
314 1 76.8261 186.598 -5.55112e-17
315 2 139.541 53.9155 -5.55112e-17
316 1 101.047 72.0397 -5.55112e-17
317 1 59.2793 127.549 -5.55112e-17
318 1 190.311 183.952 -5.55112e-17
319 2 153.85 141.433 -5.55112e-17
320 1 61.4748 209.59 -5.55112e-17
321 1 139.422 11.07 -5.55112e-17
322 1 3.39711 166.746 -5.55112e-17
323 2 79.2117 208.817 -5.55112e-17
324 2 74.9068 204.932 -5.55112e-17
325 2 94.3951 171.98 -5.55112e-17
326 1 54.639 214.599 -5.55112e-17
327 1 64.8185 63.0602 -5.55112e-17
328 2 40.3075 27.1869 -5.55112e-17
329 2 109.102 1.02964 -5.55112e-17
330 2 22.479 65.7959 -5.55112e-17
331 2 146.204 68.8058 -5.55112e-17
332 2 92.6862 187.296 -5.55112e-17
333 2 59.4353 161.605 -5.55112e-17
334 2 109.718 27.6428 -5.55112e-17
335 1 164.263 185.361 -5.55112e-17
336 2 58.5845 109.009 -5.55112e-17
337 2 77.1355 19.4273 -5.55112e-17
338 1 142.554 98.2546 -5.55112e-17
339 2 213.002 49.345 -5.55112e-17
340 2 66.0958 106.658 -5.55112e-17
341 2 172.148 124.2 -5.55112e-17
342 2 139.478 160.311 -5.55112e-17
343 2 189.795 186.267 -5.55112e-17
344 1 201.013 132.95 -5.55112e-17
345 2 51.7663 121.881 -5.55112e-17
346 2 120.35 209.054 -5.55112e-17
347 1 186.441 85.2567 -5.55112e-17
348 1 153.563 79.5076 -5.55112e-17
349 2 6.39203 30.5209 -5.55112e-17
350 2 9.38882 116.728 -5.55112e-17
351 1 79.0779 165.593 -5.55112e-17
352 1 205.259 209.005 -5.55112e-17
353 2 18.702 19.2376 -5.55112e-17
354 2 3.50468 76.3643 -5.55112e-17
355 1 215.339 99.3663 -5.55112e-17
356 2 102.775 40.47 -5.55112e-17
357 1 13.3142 113.599 -5.55112e-17
358 1 9.83285 9.81593 -5.55112e-17
359 1 138.433 155.024 -5.55112e-17
360 1 159.558 108.764 -5.55112e-17
361 2 196.644 136.929 -5.55112e-17
362 2 148.656 217.631 -5.55112e-17
363 1 13.6986 53.2345 -5.55112e-17
364 2 143.029 36.9717 -5.55112e-17
365 1 31.9818 4.16225 -5.55112e-17
366 1 137.626 179.885 -5.55112e-17
367 1 93.6087 116.143 -5.55112e-17
368 1 189.93 21.9544 -5.55112e-17
369 2 57.4137 125.771 -5.55112e-17
370 1 135.075 82.8711 -5.55112e-17
371 2 11.4689 209.562 -5.55112e-17
372 1 12.6976 136.784 -5.55112e-17
373 2 70.2785 136.122 -5.55112e-17
374 2 194.281 54.7998 -5.55112e-17
375 1 23.5083 25.9227 -5.55112e-17
376 1 12.6376 62.5016 -5.55112e-17
377 2 109.364 58.9023 -5.55112e-17
378 2 96.0253 196.638 -5.55112e-17
379 2 209.68 167.665 -5.55112e-17
380 1 208.199 62.7189 -5.55112e-17
381 1 157.917 46.2402 -5.55112e-17
382 1 79.169 150.003 -5.55112e-17
383 1 147.51 146.242 -5.55112e-17
384 2 124.896 15.901 -5.55112e-17
385 1 48.3629 157.244 -5.55112e-17
386 2 18.3064 68.7164 -5.55112e-17
387 1 6.80893 116.434 -5.55112e-17
388 1 162.036 47.3293 -5.55112e-17
389 2 212.91 89.4502 -5.55112e-17
390 1 157.634 113.863 -5.55112e-17
391 1 158.036 153.436 -5.55112e-17
392 2 91.5462 179.751 -5.55112e-17
393 2 37.6263 173.736 -5.55112e-17
394 1 30.7978 59.9498 -5.55112e-17
395 1 112.165 16.103 -5.55112e-17
396 2 156.981 106.268 -5.55112e-17
397 1 180.022 211.303 -5.55112e-17
398 2 216.059 81.2019 -5.55112e-17
399 2 141.121 183.404 -5.55112e-17
400 2 156.228 86.7018 -5.55112e-17
401 2 76.2242 149.921 -5.55112e-17
402 1 82.0047 181.85 -5.55112e-17
403 1 201.204 83.667 -5.55112e-17
404 2 50.5027 5.01178 -5.55112e-17
405 1 214.899 188.111 -5.55112e-17
406 2 213.489 94.5759 -5.55112e-17
407 1 24.1488 125.004 -5.55112e-17
408 1 102.04 78.7456 -5.55112e-17
409 2 98.044 186.758 -5.55112e-17
410 2 135.514 105.291 -5.55112e-17
411 1 28.4033 23.3784 -5.55112e-17
412 1 91.3069 69.2091 -5.55112e-17
413 1 41.9975 185.032 -5.55112e-17
414 2 133.919 215.381 -5.55112e-17
415 1 4.15735 157.388 -5.55112e-17
416 1 82.4468 186.455 -5.55112e-17
417 2 202.33 200.593 -5.55112e-17
418 2 49.6534 34.139 -5.55112e-17
419 2 117.884 166.907 -5.55112e-17
420 2 169.717 90.0928 -5.55112e-17
421 1 122.432 31.0356 -5.55112e-17
422 1 185.321 62.0876 -5.55112e-17
423 2 144.105 19.3529 -5.55112e-17
424 2 150.812 5.58628 -5.55112e-17
425 2 30.044 152.923 -5.55112e-17
426 1 128.321 67.6416 -5.55112e-17
427 2 59.3029 42.3727 -5.55112e-17
428 1 6.45642 145.648 -5.55112e-17
429 2 122.062 135.323 -5.55112e-17
430 2 90.5257 63.1969 -5.55112e-17
431 1 45.7882 40.4087 -5.55112e-17
432 2 116.878 100.402 -5.55112e-17
433 1 149.008 34.4869 -5.55112e-17
434 1 72.6157 158.186 -5.55112e-17
435 1 87.056 158.032 -5.55112e-17
436 2 38.2557 11.9629 -5.55112e-17
437 2 27.5505 51.783 -5.55112e-17
438 2 93.9625 107.611 -5.55112e-17
439 2 22.5197 123.112 -5.55112e-17
440 2 18.2393 32.4733 -5.55112e-17
441 1 124.811 98.184 -5.55112e-17
442 1 213.501 43.7421 -5.55112e-17
443 2 68.6019 194.076 -5.55112e-17
444 1 108.565 98.999 -5.55112e-17
445 1 60.0607 132.692 -5.55112e-17
446 2 168.729 188.061 -5.55112e-17
447 2 81.1629 5.16586 -5.55112e-17
448 2 77.9403 189.207 -5.55112e-17
449 1 126.212 200.643 -5.55112e-17
450 1 93.5782 102.541 -5.55112e-17
451 1 59.3499 46.7873 -5.55112e-17
452 2 129.213 120.248 -5.55112e-17
453 1 152.161 123.496 -5.55112e-17
454 1 177.042 79.0703 -5.55112e-17
455 2 95.8368 121.64 -5.55112e-17
456 1 139.142 16.3482 -5.55112e-17
457 2 180.898 42.595 -5.55112e-17
458 2 17.2196 149.51 -5.55112e-17
459 2 155.809 217.938 -5.55112e-17
460 1 95.8909 162.371 -5.55112e-17
461 1 156.944 202.676 -5.55112e-17
462 1 173.542 110.273 -5.55112e-17
463 2 142.375 218.012 -5.55112e-17
464 2 168.714 144.198 -5.55112e-17
465 1 53.2527 216.789 -5.55112e-17
466 2 61.0758 82.3601 -5.55112e-17
467 2 12.9688 42.8996 -5.55112e-17
468 2 194.68 193.144 -5.55112e-17
469 2 71.2531 83.5027 -5.55112e-17
470 2 100.517 19.5484 -5.55112e-17
471 2 154.634 83.7712 -5.55112e-17
472 2 67.7011 189.368 -5.55112e-17
473 2 148.588 197.363 -5.55112e-17
474 2 91.1015 39.0295 -5.55112e-17
475 1 158.15 99.8847 -5.55112e-17
476 2 112.185 199.522 -5.55112e-17
477 1 89.4049 209.22 -5.55112e-17
478 1 42.5371 18.2978 -5.55112e-17
479 2 205.611 46.0177 -5.55112e-17
480 1 87.02 51.1278 -5.55112e-17
481 1 98.1508 143.038 -5.55112e-17
482 2 199.054 165.829 -5.55112e-17
483 1 49.6118 45.7446 -5.55112e-17
484 1 29.7692 118.34 -5.55112e-17
485 2 48.3401 29.3059 -5.55112e-17
486 1 69.0966 191.509 -5.55112e-17
487 1 125.363 70.8345 -5.55112e-17
488 1 76.6537 8.94286 -5.55112e-17
489 1 4.10605 15.0698 -5.55112e-17
490 1 198.408 209.688 -5.55112e-17
491 1 27.2211 27.4717 -5.55112e-17
492 2 120.916 80.4467 -5.55112e-17
493 1 98.2112 90.3137 -5.55112e-17
494 2 119.419 144.198 -5.55112e-17
495 1 19.5503 129.937 -5.55112e-17
496 1 95.2874 136.152 -5.55112e-17
497 1 126.33 169.585 -5.55112e-17
498 2 218.755 9.30698 -5.55112e-17
499 2 189.546 52.7617 -5.55112e-17
500 2 212.078 75.3003 -5.55112e-17
501 2 36.5487 64.1925 -5.55112e-17
502 2 53.2672 42.9174 -5.55112e-17
503 2 120.926 195.537 -5.55112e-17
504 2 3.33968 97.5022 -5.55112e-17
505 2 158.332 131.822 -5.55112e-17
506 1 127.592 198.31 -5.55112e-17
507 2 51.4212 145.173 -5.55112e-17
508 1 131.142 89.1749 -5.55112e-17
509 1 206.113 98.4337 -5.55112e-17
510 1 121.596 216.145 -5.55112e-17
511 2 110.522 119.628 -5.55112e-17
512 1 84.0393 149.37 -5.55112e-17
513 2 93.506 133.818 -5.55112e-17
514 2 128.132 114.419 -5.55112e-17
515 1 68.4802 134.649 -5.55112e-17
516 2 18.3094 47.8593 -5.55112e-17
517 1 199.016 93.7773 -5.55112e-17
518 2 70.4259 29.3212 -5.55112e-17
519 1 187.797 193.593 -5.55112e-17
520 2 170.832 57.1258 -5.55112e-17
521 2 149.463 64.7633 -5.55112e-17
522 1 207.205 2.09416 -5.55112e-17
523 1 99.1331 117.333 -5.55112e-17
524 2 89.1487 128.492 -5.55112e-17
525 2 207.761 91.4974 -5.55112e-17
526 2 189.77 143.567 -5.55112e-17
527 1 73.5167 130.476 -5.55112e-17
528 1 117.115 68.3986 -5.55112e-17
529 2 91.7942 100.761 -5.55112e-17
530 2 115.505 216.056 -5.55112e-17
531 2 167.994 28.0154 -5.55112e-17
532 1 36.0528 73.433 -5.55112e-17
533 2 117.048 35.7993 -5.55112e-17
534 1 193.977 181.248 -5.55112e-17
535 1 200.721 190.432 -5.55112e-17
536 2 75.0014 159.355 -5.55112e-17
537 1 73.179 59.0208 -5.55112e-17
538 1 11.7513 40.0804 -5.55112e-17
539 2 50.8411 141.976 -5.55112e-17
540 1 121.558 12.069 -5.55112e-17
541 1 195.29 177.288 -5.55112e-17
542 1 194.813 173.889 -5.55112e-17
543 2 145.752 94.6661 -5.55112e-17
544 1 153.976 36.5347 -5.55112e-17
545 1 31.1962 120.366 -5.55112e-17
546 2 83.2601 47.2664 -5.55112e-17
547 1 74.5051 122.732 -5.55112e-17
548 1 62.6043 155.01 -5.55112e-17
549 2 180.084 193.169 -5.55112e-17
550 2 171.717 79.1042 -5.55112e-17
551 2 48.416 98.6767 -5.55112e-17
552 1 162.759 34.77 -5.55112e-17
553 2 19.447 65.7393 -5.55112e-17
554 2 198.857 70.5298 -5.55112e-17
555 2 43.0184 140.645 -5.55112e-17
556 1 34.2912 113.302 -5.55112e-17
557 1 44.9914 87.9617 -5.55112e-17
558 1 81.3839 126.565 -5.55112e-17
559 2 206.429 54.4825 -5.55112e-17
560 2 87.8795 131.546 -5.55112e-17
561 2 88.1474 155.811 -5.55112e-17
562 2 185.658 67.4287 -5.55112e-17
563 1 180.056 122.364 -5.55112e-17
564 2 106.891 38.8411 -5.55112e-17
565 2 127.322 51.7636 -5.55112e-17
566 2 125.698 113.115 -5.55112e-17
567 1 138.779 131.341 -5.55112e-17
568 1 73.252 161.191 -5.55112e-17
569 2 46.4537 144.237 -5.55112e-17
570 2 23.9431 188.082 -5.55112e-17
571 2 201.248 41.5151 -5.55112e-17
572 1 2.60589 2.66006 -5.55112e-17
573 2 104.771 163.532 -5.55112e-17
574 2 114.549 53.6396 -5.55112e-17
575 1 11.3689 103.616 -5.55112e-17
576 1 158.333 204.835 -5.55112e-17
577 1 116.416 30.7661 -5.55112e-17
578 1 82.5158 44.556 -5.55112e-17
579 2 42.4637 118.284 -5.55112e-17
580 1 183.888 150.441 -5.55112e-17
581 1 119.124 127.806 -5.55112e-17
582 2 32.4447 143.659 -5.55112e-17
583 2 127.222 135.385 -5.55112e-17
584 2 173.308 144.798 -5.55112e-17
585 1 164.137 28.1591 -5.55112e-17
586 1 112.39 109.205 -5.55112e-17
587 1 131.249 61.5575 -5.55112e-17
588 2 142.489 159.587 -5.55112e-17
589 1 162.594 113.094 -5.55112e-17
590 2 137.204 38.7499 -5.55112e-17
591 2 191.863 103.223 -5.55112e-17
592 1 49.9434 205.014 -5.55112e-17
593 1 173.656 71.8173 -5.55112e-17
594 1 123.915 178.524 -5.55112e-17
595 1 213.4 113.2 -5.55112e-17
596 2 21.1029 214.216 -5.55112e-17
597 2 173.757 66.2601 -5.55112e-17
598 2 80.4404 135.85 -5.55112e-17
599 2 12.0754 48.9693 -5.55112e-17
600 2 136.768 4.2401 -5.55112e-17
601 1 71.769 179.679 -5.55112e-17
602 1 157.336 188.34 -5.55112e-17
603 2 164.175 160.546 -5.55112e-17
604 1 83.0483 179.497 -5.55112e-17
605 2 198.303 29.8351 -5.55112e-17
606 2 199.188 173.546 -5.55112e-17
607 2 169.387 206.037 -5.55112e-17
608 2 147.18 99.7396 -5.55112e-17
609 1 145.23 60.8325 -5.55112e-17
610 2 81.0393 145.663 -5.55112e-17
611 1 73.1825 189.182 -5.55112e-17
612 1 153.552 31.5622 -5.55112e-17
613 2 145.134 97.8562 -5.55112e-17
614 1 158.516 199.471 -5.55112e-17
615 1 33.3239 32.0706 -5.55112e-17
616 2 190.581 96.142 -5.55112e-17
617 1 108.351 103.873 -5.55112e-17
618 1 97.014 55.474 -5.55112e-17
619 1 152.974 155.119 -5.55112e-17
620 2 130.592 122.633 -5.55112e-17
621 2 187.665 118.448 -5.55112e-17
622 2 176.121 46.5666 -5.55112e-17
623 2 191.377 55.3235 -5.55112e-17
624 1 218.969 154.75 -5.55112e-17
625 2 156.552 66.1264 -5.55112e-17
626 1 5.57566 9.99139 -5.55112e-17
627 2 173.254 112.804 -5.55112e-17
628 1 67.1368 184.42 -5.55112e-17
629 1 105.259 46.3807 -5.55112e-17
630 2 3.59198 84.5027 -5.55112e-17
631 2 41.5019 102.079 -5.55112e-17
632 2 165.939 40.119 -5.55112e-17
633 2 66.9507 202.229 -5.55112e-17
634 2 8.19401 65.6829 -5.55112e-17
635 2 101.133 126.721 -5.55112e-17
636 1 195.015 10.8022 -5.55112e-17
637 1 49.4556 58.7263 -5.55112e-17
638 1 116.207 45.9038 -5.55112e-17
639 2 120.162 161.701 -5.55112e-17
640 2 69.2877 21.6562 -5.55112e-17
641 1 4.68808 125.566 -5.55112e-17
642 2 148.725 14.7156 -5.55112e-17
643 1 58.5427 101.642 -5.55112e-17
644 2 79.135 182.063 -5.55112e-17
645 2 40.3912 4.5427 -5.55112e-17
646 1 7.52874 164.675 -5.55112e-17
647 2 202.801 195.02 -5.55112e-17
648 2 27.7725 77.8517 -5.55112e-17
649 1 48.183 39.7098 -5.55112e-17
650 1 101.77 76.1741 -5.55112e-17
651 1 96.1947 140.915 -5.55112e-17
652 2 38.6049 92.4632 -5.55112e-17
653 2 200.093 34.5795 -5.55112e-17
654 1 215.209 115.032 -5.55112e-17
655 1 93.7573 46.8402 -5.55112e-17
656 1 106.446 186.708 -5.55112e-17
657 1 75.7891 200.031 -5.55112e-17
658 2 209.64 134.016 -5.55112e-17
659 2 26.7029 33.3003 -5.55112e-17
660 1 132.815 98.9931 -5.55112e-17
661 2 5.96617 60.2786 -5.55112e-17
662 2 79.3246 90.7867 -5.55112e-17
663 1 122.538 43.0253 -5.55112e-17
664 1 116.571 139.989 -5.55112e-17
665 1 164.23 144.83 -5.55112e-17
666 1 165.792 173.48 -5.55112e-17
667 1 147.843 138.505 -5.55112e-17
668 1 162.151 10.1187 -5.55112e-17
669 1 34.0842 39.8265 -5.55112e-17
670 2 53.3752 70.1046 -5.55112e-17
671 1 19.9095 109.531 -5.55112e-17
672 1 140.222 56.4019 -5.55112e-17
673 2 44.212 90.4421 -5.55112e-17
674 2 48.6208 65.8754 -5.55112e-17
675 2 41.432 54.214 -5.55112e-17
676 1 90.5679 156.322 -5.55112e-17
677 2 79.7496 21.0934 -5.55112e-17
678 1 52.3028 96.0753 -5.55112e-17
679 1 178.879 8.51005 -5.55112e-17
680 2 170.047 155.663 -5.55112e-17
681 1 79.8225 72.6015 -5.55112e-17
682 1 34.8579 24.5137 -5.55112e-17
683 2 76.0664 132.021 -5.55112e-17
684 1 184.43 152.521 -5.55112e-17
685 1 191.552 155.028 -5.55112e-17
686 1 111.466 133.366 -5.55112e-17
687 1 8.21018 213.701 -5.55112e-17
688 1 196.472 106.147 -5.55112e-17
689 2 48.4998 186.48 -5.55112e-17
690 1 171.867 16.518 -5.55112e-17
691 2 77.4819 106.789 -5.55112e-17
692 2 44.435 68.2438 -5.55112e-17
693 1 167.309 190.294 -5.55112e-17
694 2 210.01 116.513 -5.55112e-17
695 2 208.304 165.334 -5.55112e-17
696 2 180.208 149.009 -5.55112e-17
697 1 77.4843 191.899 -5.55112e-17
698 2 183.607 99.6805 -5.55112e-17
699 1 136.685 130.708 -5.55112e-17
700 2 33.2146 2.00779 -5.55112e-17
701 2 103.838 187.274 -5.55112e-17
702 1 51.2103 200.463 -5.55112e-17
703 1 43.2012 65.8347 -5.55112e-17
704 1 112.592 121.46 -5.55112e-17
705 1 115.061 208.907 -5.55112e-17
706 1 176.508 206.876 -5.55112e-17
707 1 7.11108 154.189 -5.55112e-17
708 2 198.699 111.961 -5.55112e-17
709 1 214.027 216.964 -5.55112e-17
710 2 212.69 134.731 -5.55112e-17
711 2 53.2393 12.8462 -5.55112e-17
712 1 159.834 70.1415 -5.55112e-17
713 1 52.9855 113.137 -5.55112e-17
714 2 177.021 0.210772 -5.55112e-17
715 2 166.284 181.207 -5.55112e-17
716 1 200.187 31.8279 -5.55112e-17
717 1 29.8562 67.2754 -5.55112e-17
718 2 210.214 158.431 -5.55112e-17
719 1 191.4 152.153 -5.55112e-17
720 2 195.056 148.942 -5.55112e-17
721 2 212.99 125.12 -5.55112e-17
722 2 2.02064 125.734 -5.55112e-17
723 2 175.173 147.034 -5.55112e-17
724 2 180.878 103.476 -5.55112e-17
725 2 120.309 164.747 -5.55112e-17
726 2 29.6374 25.7955 -5.55112e-17
727 2 17.0331 177.212 -5.55112e-17
728 1 140.865 192.761 -5.55112e-17
729 2 170.804 102.338 -5.55112e-17
730 2 195.058 77.6632 -5.55112e-17
731 1 184.353 141.856 -5.55112e-17
732 2 43.4289 160.082 -5.55112e-17
733 2 117.723 163.849 -5.55112e-17
734 2 163.413 45.0295 -5.55112e-17
735 2 114.709 162.048 -5.55112e-17
736 1 154.278 81.352 -5.55112e-17
737 2 0.704547 22.3395 -5.55112e-17
738 2 45.6853 73.1471 -5.55112e-17
739 2 188.211 202.805 -5.55112e-17
740 2 155.631 154.636 -5.55112e-17
741 2 80.317 213.789 -5.55112e-17
742 1 215.16 179.759 -5.55112e-17
743 2 211.298 111.687 -5.55112e-17
744 1 73.1342 132.572 -5.55112e-17
745 2 148.683 61.4695 -5.55112e-17
746 1 123.769 21.1365 -5.55112e-17
747 1 59.7916 99.5975 -5.55112e-17
748 2 218.201 152.135 -5.55112e-17
749 1 9.46385 174.255 -5.55112e-17
750 1 188.886 91.8088 -5.55112e-17
751 1 104.368 26.1416 -5.55112e-17
752 2 137.657 136.086 -5.55112e-17
753 1 189.469 120.791 -5.55112e-17
754 2 125.036 8.85109 -5.55112e-17
755 1 216.19 10.3545 -5.55112e-17
756 2 192.316 173.048 -5.55112e-17
757 1 45.1074 81.2462 -5.55112e-17
758 2 57.8915 63.3359 -5.55112e-17
759 1 61.1901 114.337 -5.55112e-17
760 1 208.466 102.303 -5.55112e-17
761 2 57.3502 203.284 -5.55112e-17
762 1 108.455 175.711 -5.55112e-17
763 2 93.0969 196.922 -5.55112e-17
764 2 128.707 127.095 -5.55112e-17
765 1 36.7843 136.342 -5.55112e-17
766 2 171.82 94.4254 -5.55112e-17
767 2 203.233 171.417 -5.55112e-17
768 2 1.17131 25.3155 -5.55112e-17
769 2 17.6385 163.251 -5.55112e-17
770 1 2.02139 168.904 -5.55112e-17
771 1 34.5434 150.351 -5.55112e-17
772 1 173.013 176.778 -5.55112e-17
773 2 93.2589 145.793 -5.55112e-17
774 1 120.933 44.7007 -5.55112e-17
775 1 49.9637 119.887 -5.55112e-17
776 2 122.189 54.3538 -5.55112e-17
777 2 181.632 206.23 -5.55112e-17
778 1 190.886 177.319 -5.55112e-17
779 1 66.3793 161.443 -5.55112e-17
780 2 198.196 104.204 -5.55112e-17
781 1 106.704 93.9274 -5.55112e-17
782 2 147.762 107.638 -5.55112e-17
783 1 109.295 32.1343 -5.55112e-17
784 2 59.4203 176.795 -5.55112e-17
785 1 34.264 199.983 -5.55112e-17
786 1 143.501 140.817 -5.55112e-17
787 2 180.141 178.362 -5.55112e-17
788 2 12.4758 206.835 -5.55112e-17
789 2 210.043 211.052 -5.55112e-17
790 2 185.257 18.4392 -5.55112e-17
791 2 167.772 1.62878 -5.55112e-17
792 1 112.034 11.4284 -5.55112e-17
793 1 58.4515 145.594 -5.55112e-17
794 2 83.846 128.588 -5.55112e-17
795 2 102.515 28.2181 -5.55112e-17
796 1 16.1072 0.11489 -5.55112e-17
797 1 143.291 131.829 -5.55112e-17
798 1 74.212 18.1573 -5.55112e-17
799 2 15.7127 6.62449 -5.55112e-17
800 1 176.745 95.2837 -5.55112e-17
801 2 24.242 130.627 -5.55112e-17
802 1 46.9928 58.9316 -5.55112e-17
803 1 216.563 52.6172 -5.55112e-17
804 1 14.874 44.9388 -5.55112e-17
805 2 48.3129 209.676 -5.55112e-17
806 2 14.3313 30.0978 -5.55112e-17
807 2 193.872 215.555 -5.55112e-17
808 2 98.0139 1.60887 -5.55112e-17
809 1 200.67 7.24039 -5.55112e-17
810 2 42.4671 6.6184 -5.55112e-17
811 2 198.352 42.8341 -5.55112e-17
812 1 112.643 141.155 -5.55112e-17
813 1 51.0301 60.9197 -5.55112e-17
814 1 38.4993 33.4484 -5.55112e-17
815 1 208.358 13.2527 -5.55112e-17
816 1 160.896 195.362 -5.55112e-17
817 2 86.8027 122.845 -5.55112e-17
818 2 118.952 58.1454 -5.55112e-17
819 2 94.8092 77.5186 -5.55112e-17
820 1 181.185 126.395 -5.55112e-17
821 1 210.228 77.0421 -5.55112e-17
822 2 176.048 59.6289 -5.55112e-17
823 1 90.3511 187.781 -5.55112e-17
824 1 189.282 98.4319 -5.55112e-17
825 1 35.7662 165.716 -5.55112e-17
826 2 130.747 32.3303 -5.55112e-17
827 2 21.1297 103.713 -5.55112e-17
828 1 158.757 118.619 -5.55112e-17
829 2 146.618 186.347 -5.55112e-17
830 1 119.614 99.4918 -5.55112e-17
831 2 189.571 159.319 -5.55112e-17
832 2 45.1479 94.6928 -5.55112e-17
833 2 130.271 69.3542 -5.55112e-17
834 1 200.805 29.0952 -5.55112e-17
835 1 166.572 98.2077 -5.55112e-17
836 1 13.7638 21.5707 -5.55112e-17
837 2 13.7218 86.2282 -5.55112e-17
838 2 68.2381 84.326 -5.55112e-17
839 1 4.23609 119.761 -5.55112e-17
840 2 159.844 206.971 -5.55112e-17
841 2 149.751 123.103 -5.55112e-17
842 1 206.476 18.4103 -5.55112e-17
843 1 149.775 155.496 -5.55112e-17
844 2 162.541 101.137 -5.55112e-17
845 1 31.7225 201.524 -5.55112e-17
846 2 53.755 209.252 -5.55112e-17
847 1 137.635 18.2074 -5.55112e-17
848 2 37.787 178.626 -5.55112e-17
849 1 21.9477 183.077 -5.55112e-17
850 2 82.0492 52.5686 -5.55112e-17
851 2 138.368 126.617 -5.55112e-17
852 1 37.3272 215.838 -5.55112e-17
853 1 7.06798 47.3185 -5.55112e-17
854 2 44.318 11.3004 -5.55112e-17
855 2 205.988 41.2594 -5.55112e-17
856 1 211.595 141.537 -5.55112e-17