ITEM: TIMESTEP
0
ITEM: NUMBER OF ATOMS
32000
ITEM: BOX BOUNDS pp pp pp
-2.5643000623259713e+00 8.0399077580639087e+01
-2.5643000623259713e+00 8.0399077580639087e+01
-2.5643000623259713e+00 8.0399077580639087e+01
ITEM: ATOMS id type x y z
1 1 48.4737 37.4423 23.5471
2 1 53.6417 52.2749 42.1528
3 1 48.7758 23.7432 65.6527
4 1 43.4507 63.5094 49.5395
5 1 34.3318 39.3645 8.3258
6 1 -2.17755 35.7027 46.8272
7 1 49.4921 33.2089 47.3243
8 1 76.6247 50.9852 36.6121
9 1 30.4094 8.66343 51.2675
10 1 71.3192 67.0799 29.5775
11 1 28.4191 67.4135 71.7353
12 1 32.3764 31.6635 74.0057
13 1 37.2487 56.9204 55.9923
14 2 30.6141 54.7492 57.8833
15 2 26.9962 0.148993 59.0659
16 1 10.1382 50.2229 71.5378
17 1 71.4346 62.3334 67.5302
18 2 79.3379 34.7043 27.2937
19 1 19.1716 9.64387 6.31332
20 1 78.3525 3.93282 36.0429
21 2 79.6896 3.36907 61.0522
22 1 6.59437 57.9471 53.2038
23 1 23.7668 35.3133 76.6784
24 2 79.0284 19.0918 46.9246
25 2 78.6999 22.3686 59.7981
26 1 24.0927 24.2647 13.2253
27 2 0.837967 58.78 2.87839
28 1 26.528 58.0882 36.5169
29 2 24.0554 52.7141 2.21363
30 2 67.2123 14.7409 68.1486
31 1 63.799 50.9421 33.3881
32 1 44.1631 -1.54822 51.7287
33 1 18.7789 54.7341 74.127
34 2 5.13366 64.2403 63.6897
35 1 73.3368 63.7183 73.4565
36 2 48.0987 68.2459 12.9719
37 1 61.9509 21.2522 31.9267
38 1 62.6167 18.8766 2.08518
39 1 30.4999 68.8296 76.7137
40 2 5.51633 9.78661 51.8073
41 2 10.6027 18.2061 58.9675
42 1 30.5438 79.3103 37.8053
43 2 56.0648 33.7089 5.40652
44 2 67.3894 13.5068 63.748
45 2 36.7832 49.7445 53.382
46 2 68.9558 53.0194 52.6719
47 2 73.829 9.00386 23.5479
48 1 63.2193 63.9749 14.5789
49 2 28.3947 30.3679 11.1373
50 1 -1.11379 0.562889 57.6703
51 2 55.7512 65.7633 34.7557
52 1 6.21444 77.1618 51.081
53 2 29.5763 39.3503 6.83115
54 1 27.5238 75.3509 37.6788
55 1 38.0758 -2.20087 59.6567
56 2 52.8511 42.3833 27.2622
57 2 6.04964 53.1959 11.5781
58 2 79.1684 7.23031 56.4805
59 2 33.5788 10.566 32.2272
60 2 56.5322 12.9559 79.7216
61 2 71.3533 70.2357 57.8471
62 1 16.8421 38.6173 51.6221
63 1 -0.331875 76.9915 64.1982
64 2 21.5826 75.7241 19.0493
65 2 5.81507 55.7934 70.3622
66 1 15.0878 74.6749 79.1135
67 1 44.3523 74.8002 12.0404
68 1 8.68992 47.2387 71.5465
69 1 58.1531 -0.508491 40.7607
70 2 5.58797 35.5832 57.7596
71 2 38.7057 24.7247 78.2327
72 1 17.5781 44.0695 73.248
73 1 25.565 44.8991 4.71287
74 1 2.03047 32.0309 60.3097
75 1 4.44368 70.5395 66.5055
76 2 69.6132 5.29752 0.821872
77 2 1.69838 43.5456 64.4109
78 2 44.0463 62.8685 63.7447
79 1 55.5265 52.238 38.8877
80 1 62.43 75.0093 22.3042
81 2 52.6584 49.1597 73.2854
82 2 25.5656 8.89107 48.5344
83 1 19.3945 32.3374 46.5709
84 2 32.426 0.0484743 36.7676
85 2 53.9878 46.235 42.1509
86 2 40.4901 23.3 52.3608
87 2 37.0639 47.2016 70.5713
88 2 37.8298 6.82448 38.9503
89 1 7.66396 27.087 78.1359
90 2 39.541 8.4411 27.2512
91 1 1.11611 1.8351 23.7782
92 1 54.2841 1.12344 52.131
93 2 8.73295 56.9012 61.5355
94 1 64.3113 9.31838 18.8023
95 1 79.3863 61.8657 62.4565
96 1 3.19577 67.0434 48.5511
97 1 42.2472 61.7953 44.5694
98 2 56.849 71.6961 41.8412
99 2 41.0701 2.68018 63.2753
100 2 3.1601 33.2434 27.0503
101 1 53.5846 29.8235 60.9492
102 2 -1.67558 38.3497 9.22484
103 2 78.1203 68.5281 25.0621
104 1 17.2181 19.6027 10.9128
105 1 49.2392 51.6224 -1.7309
106 2 8.40063 61.342 73.4531
107 1 75.0641 49.3555 38.4145
108 2 41.3552 7.66693 46.3391
109 1 21.5717 4.33729 61.3517
110 2 54.2773 19.3198 12.6247
111 1 62.4745 53.235 39.3966
112 1 40.6847 40.0956 5.28933
113 1 70.1392 72.2258 42.4021
114 2 66.8173 14.8189 35.7498
115 1 69.8959 39.6349 55.107
116 1 22.0554 46.7191 57.559
117 2 35.829 42.8578 46.7298
118 2 71.8354 36.1422 37.7084
119 2 19.2269 24.4821 66.2713
120 2 2.76272 60.6334 56.2927
121 2 47.406 -2.32552 16.0238
122 2 46.8607 80.1079 59.625
123 2 11.8005 14.4569 32.3707
124 1 70.0087 76.7038 39.3856
125 1 63.5675 40.218 35.4073
126 2 61.7473 18.8074 76.2407
127 1 40.5235 54.2307 74.2483
128 1 8.40774 34.8287 12.6366
129 2 6.91938 17.7582 46.5076
130 2 9.79405 14.9449 23.2283
131 2 55.7125 8.04953 29.6588
132 2 39.5648 46.9416 55.9736
133 1 80.133 52.2373 40.3937
134 2 60.2824 9.61068 72.8623
135 1 31.2941 11.2807 31.2103
136 1 18.2793 29.3387 9.36868
137 2 74.897 17.5972 19.2442
138 2 18.2836 1.61378 58.7136
139 2 26.7426 18.2341 12.8152
140 1 5.69255 76.5576 14.3675
141 2 76.3534 67.1207 52.0765
142 1 12.0049 15.9999 71.115
143 1 70.4151 8.5611 47.8884
144 1 14.2256 71.0626 3.94102
145 2 17.9063 55.5759 25.8651
146 2 8.66353 16.185 7.6572
147 1 44.4618 68.3726 74.6053
148 2 53.607 29.8705 38.7697
149 2 28.5562 21.76 48.7896
150 2 3.04737 3.69111 23.351
151 1 33.7327 50.215 76.7454
152 1 17.5411 40.9554 40.9754
153 1 61.1583 14.6235 13.304
154 1 0.405202 24.7323 72.1428
155 2 18.9789 7.16167 22.7839
156 2 44.0532 63.5689 45.8008
157 1 69.6162 7.4544 69.5607
158 1 58.3355 53.439 0.504965
159 1 33.6018 57.954 -2.03529
160 2 63.8606 17.7643 43.6294
161 1 -2.41065 73.5242 45.4243
162 2 79.6471 11.0257 34.966
163 1 6.89029 58.2183 27.9411
164 1 34.4581 51.3605 6.98896
165 1 15.6109 59.8258 21.6235
166 2 10.8086 41.9923 19.3714
167 2 21.6047 11.5619 46.8723
168 2 5.48264 68.4212 17.9333
169 2 2.57251 41.6925 57.1186
170 2 36.405 4.52834 7.82819
171 1 10.5366 78.4866 24.7856
172 2 33.9485 20.634 74.3066
173 1 39.0785 36.602 61.3219
174 1 58.3638 8.94135 31.1466
175 1 30.4042 63.8097 46.702
176 2 16.7909 36.0432 19.9933
177 2 23.1302 30.6547 5.5501
178 2 71.1869 75.4365 20.975
179 1 23.0782 54.4133 36.3032
180 1 37.4498 18.1805 20.8463
181 2 28.1014 48.0321 51.7644
182 2 77.7713 51.0354 33.6287
183 2 49.7885 26.9779 32.0211
184 1 31.4703 71.1284 52.0755
185 2 44.8686 -1.66451 -0.184465
186 1 47.3621 75.3505 36.5926
187 2 61.4348 28.3729 13.3101
188 1 22.2199 28.678 48.0627
189 2 49.2721 21.5872 37.3912
190 1 45.2967 45.8369 6.09375
191 1 72.6337 9.97238 76.1955
192 2 12.2604 12.4555 58.9722
193 1 18.5367 8.73203 61.8211
194 1 53.4078 76.6162 33.1569
195 1 47.0203 10.9143 17.4068
196 2 73.1231 62.1812 13.1418
197 2 65.5899 66.2813 66.8125
198 2 26.7938 59.4269 33.7225
199 1 67.3301 59.7755 14.0556
200 2 71.6388 38.7077 56.6538
201 2 3.31829 53.6544 53.8681
202 2 3.6094 7.47882 72.4811
203 1 24.1066 24.5828 54.3911
204 2 27.6198 63.8605 35.3232
205 1 29.6897 32.4268 71.5448
206 1 8.39744 13.1518 21.5371
207 2 74.7736 38.332 72.742
208 2 42.4887 46.0329 75.3508
209 2 23.215 22.2619 32.1872
210 1 40.14 78.91 59.4844
211 1 -0.601743 63.6002 77.0496
212 2 42.9885 25.9595 47.6471
213 2 27.4451 42.9647 5.33624
214 2 25.3792 76.3075 54.2438
215 2 78.9117 1.82331 -0.0615142
216 2 22.6127 20.8669 61.4058
217 2 50.6786 19.9321 46.289
218 1 68.8722 0.674871 22.6521
219 2 -2.44364 29.5837 4.52478
220 1 0.346413 41.8256 62.3891
221 2 68.2682 75.6688 47.1404
222 1 48.3451 76.4586 29.7628
223 1 22.7289 41.8513 24.4955
224 2 53.0628 58.7894 24.4867
225 2 67.7036 79.1763 80.1514
226 2 25.4337 59.002 71.1554
227 1 46.9402 30.2496 77.2989
228 2 40.4871 74.4108 33.8664
229 2 34.7916 28.9584 43.744
230 2 4.43765 51.6113 32.063
231 2 34.8672 30.2956 50.148
232 1 -1.78014 36.072 63.0225
233 2 39.9451 52.1115 70.2002
234 1 58.2892 73.1738 51.0044
235 2 63.1974 58.2064 13.7532
236 2 10.3018 47.8658 30.2609
237 2 16.5803 59.5897 53.8015
238 2 54.6139 3.19023 61.8437
239 2 68.6154 47.1088 0.251159
240 2 64.4434 40.4694 21.1459
241 2 77.3337 59.8837 52.1297
242 2 38.783 66.1472 41.1788
243 2 24.8035 28.5534 65.6207
244 2 77.837 33.9219 76.9933
245 2 60.4646 69.1872 53.771
246 2 28.4858 34.2959 75.4423
247 1 9.53528 47.1659 76.0332
248 2 13.3059 4.26962 33.382
249 1 49.36 1.1629 4.84661
250 1 76.8792 58.841 20.8177
251 1 51.0086 74.2335 22.9495
252 2 64.48 64.156 59.7585
253 2 39.2922 73.0957 16.0011
254 2 53.2995 64.1375 6.95444
255 2 42.2362 23.6613 42.2378
256 1 8.74317 21.574 57.1091
257 2 15.6559 21.4098 30.6391
258 2 12.9605 -2.41094 11.1145
259 2 12.5152 53.8938 8.05376
260 1 41.9352 28.2991 78.1304
261 2 61.8715 69.5934 70.4375
262 2 1.61087 13.8654 1.7767
263 1 13.4754 54.3109 46.8501
264 2 79.708 6.56852 65.5766
265 1 56.7442 34.0859 75.2579
266 2 79.2012 49.5268 6.4249
267 1 52.0472 79.3032 41.5372
268 2 4.46045 29.8854 38.2015
269 1 72.9634 39.4484 13.1383
270 1 26.2638 61.9539 78.1449
271 2 58.7452 58.6114 5.19443
272 2 65.9666 29.6927 28.6032
273 2 39.2677 42.8758 68.0227
274 2 17.932 74.5807 33.3278
275 1 9.27842 24.7481 16.2322
276 2 53.4705 6.2663 60.6516
277 2 52.6133 65.6745 25.1736
278 1 44.8536 67.1535 69.2715
279 1 10.5873 -1.11741 67.2875
280 2 39.1468 6.07177 20.4841
281 2 74.1899 55.2728 8.25172
282 2 72.9988 24.1318 66.9977
283 1 29.4861 8.97571 57.1042
284 2 7.45125 7.88654 13.8035
285 2 3.14459 43.1373 53.1781
286 1 3.30796 63.8334 51.6076
287 2 60.9581 34.6752 55.0246
288 1 65.4799 18.4266 41.4544
289 1 30.0453 77.95 12.9056
290 1 42.6891 76.5767 7.57532
291 1 26.7905 69.2819 64.3604
292 1 27.2695 29.513 6.81579
293 1 65.1085 16.9946 31.5103
294 2 38.0589 31.4876 79.6195
295 2 53.0737 35.8428 51.9121
296 2 59.9399 49.3555 75.9378
297 2 39.9389 31.0783 69.4108
298 2 -2.4449 29.0398 66.248
299 2 64.5338 42.4774 28.3775
300 1 14.5684 55.8487 38.6046
301 2 0.486691 7.00567 4.84104
302 2 24.1701 54.7711 33.8396
303 1 13.4682 33.2001 56.6057
304 2 12.0593 41.1757 79.8069
305 1 21.668 44.5707 69.1141
306 2 14.7243 49.9024 76.3554
307 1 41.6532 14.9766 61.3997
308 2 63.073 76.8903 58.6755
309 2 16.8242 1.58229 -1.40134
310 1 63.8682 76.3006 16.6672
311 2 39.7872 -0.242353 59.5253
312 2 14.2107 7.0654 11.9621
313 1 10.8857 58.9552 72.1723
314 1 74.7397 40.6922 64.551
315 2 49.3366 42.992 12.4279
316 2 69.0768 38.4227 10.0333
317 2 8.83336 44.1748 70.2734
318 1 36.7981 42.7745 5.5603
319 2 6.34406 80.3253 31.7526
320 2 26.4987 76.1858 66.8105
321 2 34.4774 15.2288 48.7524
322 1 73.5506 2.43954 31.051
323 2 44.7866 34.1893 62.9272
324 1 69.8343 13.4464 26.1167
325 2 -1.02945 52.8884 11.7392
326 1 37.0643 6.68923 50.8783
327 1 37.6118 50.178 36.063
328 2 25.4449 60.0867 64.1857
329 2 57.4555 33.3696 31.3509
330 1 22.8693 24.8971 18.5645
331 1 62.686 22.6082 12.3084
332 2 0.264376 35.5614 67.1712
333 2 43.0924 53.8485 75.5069
334 1 18.4397 65.7316 29.0794
335 2 50.4788 22.6337 1.01615
336 1 25.7131 24.9884 78.9706
337 1 27.5208 17.1269 10.4871
338 1 42.0174 61.3706 14.5419
339 1 8.70531 8.48137 39.4782
340 2 40.4184 15.7415 27.8803
341 2 0.633231 52.1004 40.1063
342 2 62.3623 27.4849 51.6292
343 1 46.2028 5.73887 34.6639
344 2 51.6844 2.26711 48.3493
345 2 20.8069 75.9106 58.7373
346 2 24.0096 22.2259 66.7278
347 1 64.5837 77.7414 41.2562
348 1 32.9532 28.4725 51.1956
349 1 49.5092 18.3465 -1.41801
350 2 60.294 12.221 -1.59508
351 2 35.179 39.5467 75.5824
352 1 17.8194 48.1771 9.51775
353 2 20.7418 70.0191 75.6236
354 1 3.33566 66.182 6.58344
355 2 74.9465 66.9169 73.7627
356 1 78.1712 22.416 40.6746
357 1 78.0593 8.04923 20.2126
358 2 47.1265 50.9804 39.751
359 1 80.1847 -1.37983 64.8112
360 2 12.3189 74.2382 25.4921
361 2 24.8645 6.08891 57.2471
362 2 46.9901 43.8363 3.84188
363 1 -0.599557 30.149 40.4824
364 2 74.7335 2.54726 72.3241
365 1 42.0248 43.0454 19.1905
366 2 71.5093 25.0369 -0.0824552
367 1 65.9628 57.6845 15.6953
368 2 57.3518 28.9179 51.6912
369 1 47.6652 1.39849 18.3593
370 1 19.7317 43.8177 65.8908
371 2 7.95468 29.0478 62.3443
372 2 1.59571 31.7678 36.0773
373 2 43.7742 23.9482 78.7972
374 2 71.4424 12.1201 68.1422
375 1 6.23096 1.02388 46.3601
376 2 79.6394 65.131 13.7136
377 1 79.0968 41.7377 72.5261
378 1 56.2269 44.2933 56.7625
379 2 12.9682 77.1077 21.9331
380 2 5.96397 3.59338 45.9754
381 2 -2.43427 28.8656 22.204
382 2 41.0074 51.7171 7.30402
383 2 39.5745 38.8278 40.5682
384 1 67.9302 48.185 27.3106
385 1 23.8367 75.3399 28.3564
386 1 55.6136 62.8204 46.7484
387 1 32.7054 18.7742 0.802882
388 1 69.0947 70.6202 52.5661
389 2 35.5221 7.66764 25.9042
390 1 72.5854 45.8258 21.1261
391 2 4.11579 -2.03308 74.0211
392 2 23.7831 65.8867 34.4086
393 2 -1.86904 50.081 0.107618
394 2 47.3482 44.8655 33.8937
395 2 68.7801 15.2355 22.9312
396 1 15.0923 22.184 10.3122
397 1 36.7452 37.4709 59.6737
398 2 50.4071 71.0744 18.8247
399 1 10.1429 13.9524 57.9114
400 2 41.9021 22.5778 25.1752
401 2 5.85886 2.73327 53.6052
402 1 19.4115 74.2755 49.9928
403 1 -0.296433 13.5086 29.2746
404 1 55.3513 25.8941 39.0472
405 2 69.4808 47.0144 5.26539
406 2 13.5317 46.5296 18.2405
407 2 67.2475 10.7045 46.0656
408 2 75.4614 72.5748 33.1406
409 1 48.1629 48.4809 53.23
410 1 17.6715 79.4504 50.5851
411 1 68.1134 45.6523 3.39003
412 1 46.4027 13.7172 16.8635
413 1 13.898 13.7326 66.9745
414 1 72.5656 1.08034 50.7698
415 2 66.6552 -2.03757 4.77491
416 1 -0.201329 62.7326 74.1523
417 2 47.5788 77.3445 34.5334
418 1 15.971 28.7136 22.7179
419 1 68.1442 -0.185704 6.64667
420 1 61.2045 33.4215 47.5935
421 1 69.7027 57.6068 49.1618
422 1 18.4136 32.5944 17.3675
423 2 17.7932 77.335 15.6882
424 1 1.54081 19.7215 5.08593
425 1 19.9019 13.4083 59.3019
426 2 25.339 5.59994 54.5762
427 1 21.3199 16.683 7.72676
428 2 20.1979 2.01567 20.8118
429 2 27.2404 23.5817 40.5278
430 1 11.5038 48.5678 39.4601
431 2 61.1486 2.14955 75.1602
432 1 41.59 63.3587 67.715
433 1 4.80732 50.4177 19.8796
434 2 47.2167 25.8248 28.5857
435 2 48.9064 76.2479 77.6502
436 1 70.1986 0.824963 67.6088
437 1 66.8713 59.9138 76.0657
438 2 42.8207 7.75349 36.101
439 1 52.3965 67.4552 31.3036
440 1 55.0641 26.7671 30.767
441 1 58.1821 4.43817 23.3844
442 2 21.773 32.7694 3.3151
443 1 69.1902 5.67872 14.7466
444 2 52.893 60.2443 13.6161
445 1 9.98195 17.4696 51.5473
446 2 32.2546 69.8597 46.9466
447 2 50.4615 59.1433 30.2617
448 1 6.6988 73.2683 34.3575
449 1 43.1445 16.6976 66.9834
450 2 37.2658 62.3129 41.2174
451 1 27.1121 7.11171 8.72773
452 2 21.9221 57.4408 26.0183
453 1 10.174 59.6308 46.5641
454 2 16.5286 55.1294 41.5229
455 2 33.6405 51.2139 49.8758
456 1 -1.52826 50.8992 63.0062
457 2 29.6928 11.2688 28.9769
458 1 59.364 40.9349 70.4957
459 2 20.9653 23.7426 20.0552
460 2 41.0785 17.5871 7.15675
461 1 22.118 41.7567 49.9618
462 1 62.7604 74.8241 68.5103
463 1 65.0223 58.926 27.7281
464 2 1.05716 20.4686 41.5799
465 2 37.6251 71.4878 29.3446
466 2 -1.97151 26.8157 60.6064
467 2 79.8181 19.9691 41.4181
468 1 0.321882 22.7214 24.0193
469 2 65.6164 16.0417 66.6131
470 1 21.998 79.4534 37.0671
471 2 72.1545 56.4339 77.8957
472 2 19.492 45.967 79.923
473 2 43.4973 68.0797 24.0279
474 2 13.498 58.6234 67.8214
475 2 36.365 46.2183 47.4714
476 2 75.1637 20.5824 43.355
477 1 51.8259 30.2188 55.8886
478 1 57.8415 39.7923 -2.17505
479 2 25.5758 31.4392 17.5339
480 2 30.6376 72.0771 25.446
481 2 73.1581 4.45151 36.6429
482 1 3.5275 25.8749 4.72104
483 1 7.264 64.8855 74.7882
484 1 36.6073 68.1398 32.8915
485 2 31.7455 60.0466 71.9456
486 2 67.7958 24.9402 21.3225
487 1 16.7295 79.893 68.2815
488 2 73.3898 30.123 55.8887
489 2 52.7025 79.4827 7.6301
490 2 57.1745 19.2443 38.8437
491 2 2.11586 42.3229 70.8698
492 2 26.5936 31.827 71.2412
493 2 21.1839 36.0771 11.7094
494 2 26.2781 67.4343 45.5945
495 2 73.4658 10.2674 62.9961
496 2 43.2923 28.043 15.1671
497 2 22.4116 68.5623 50.7153
498 1 74.0518 50.565 70.4467
499 1 18.1139 2.78803 16.199
500 1 32.7063 3.64057 1.6102
501 1 -1.71661 0.20375 6.36844
502 1 51.4085 44.108 25.8797
503 1 61.4839 56.5088 61.8046
504 2 10.2713 17.3701 54.5827
505 1 57.1282 16.2947 49.5626
506 2 17.7436 71.5954 55.7947
507 1 55.0797 71.2666 62.1006
508 1 22.2354 12.5056 49.4145
509 2 27.6761 73.8694 1.03233
510 2 41.0152 24.5504 75.2079
511 2 65.6626 59.4742 10.4167
512 2 55.0303 36.4576 12.8741
513 2 36.012 34.3039 3.51862
514 2 2.44366 28.2146 61.5151
515 2 64.3912 36.9099 20.95
516 1 69.0817 61.2345 27.5422
517 1 51.3555 54.2369 71.1232
518 2 30.5698 29.8413 50.8184
519 2 52.106 39.2878 48.6676
520 2 73.8751 5.96471 27.5917
521 2 17.0056 74.9578 8.41163
522 2 4.46301 4.79492 68.9342
523 1 77.1684 16.0468 1.57861
524 1 44.467 21.8618 27.04
525 2 73.0311 20.4594 44.8612
526 1 -1.56252 -2.08066 2.14163
527 1 74.6154 64.3844 33.0441
528 2 1.161 17.6488 72.9721
529 2 55.7107 42.5444 52.2581
530 1 25.632 65.2935 22.1183
531 1 -1.93321 65.2118 6.87243
532 2 11.4953 19.1537 6.71382
533 2 65.974 51.8403 49.2068
534 1 43.4957 16.8004 40.0431
535 1 21.1112 39.7028 8.48376
536 1 -1.76852 19.3539 54.8213
537 1 59.8981 73.8688 70.0931
538 1 5.95173 19.3027 33.5208
539 1 62.8885 17.7326 63.0263
540 2 0.703227 17.7526 13.6199
541 2 17.1903 43.2738 3.01213
542 1 52.7137 31.683 62.823
543 1 45.7374 5.69056 73.3194
544 1 55.8331 37.0075 63.1917
545 1 13.3526 21.3325 78.459
546 1 44.7079 14.8093 49.7739
547 1 26.2845 7.81745 28.7656
548 1 67.0528 46.0949 16.0155
549 2 59.91 58.3767 32.8973
550 1 40.3473 37.8748 16.9178
551 1 78.2273 18.1883 61.6136
552 1 27.5547 46.5047 34.2673
553 1 46.2676 57.265 62.8269
554 2 71.0005 26.8104 15.2935
555 1 -0.396273 69.3185 23.5344
556 1 9.08701 45.1484 61.2152
557 2 35.8478 12.7373 48.5452
558 2 32.6617 67.2721 20.0984
559 1 3.37259 18.6298 14.8089
560 1 73.7878 17.5665 31.4931
561 2 24.4799 28.2615 56.2999
562 1 17.5415 53.1427 30.5034
563 1 77.2437 0.401673 -1.48298
564 1 59.1361 9.6017 12.5195
565 1 38.883 23.5369 26.179
566 2 44.274 34.5893 28.8193
567 1 17.1336 59.084 75.1945
568 1 36.8424 38.374 21.4871
569 1 48.5702 22.4151 71.4603
570 2 21.1905 2.30842 -0.885341
571 1 59.0352 14.3094 41.0541
572 2 42.2859 77.9238 42.3481
573 1 68.8276 0.141809 74.2845
574 1 39.2118 15.2531 57.171
575 2 70.2748 -1.31586 5.95819
576 1 23.5309 30.5789 2.96154
577 2 68.1278 24.6216 26.0851
578 2 37.6888 26.6769 27.7749
579 1 28.5666 65.9239 46.9103
580 1 67.0433 47.7128 -2.00377
581 1 13.6629 17.6846 74.2243
582 2 65.0459 36.2592 7.18732
583 2 18.6006 56.4123 -1.5505
584 2 50.9473 7.52715 18.6188
585 1 46.6886 33.2065 64.9694
586 2 55.082 35.0133 31.6916
587 1 29.3256 68.4068 48.9211
588 2 41.4846 66.6593 21.1696
589 1 10.7814 10.3625 10.1614
590 1 4.74502 7.72663 43.9544
591 2 26.623 78.4785 -2.38573
592 2 13.3034 41.8424 63.1775
593 1 1.25544 77.0633 31.1061
594 1 77.9078 -2.16132 16.0983
595 1 40.2355 54.5678 56.8353
596 1 45.8038 54.3894 31.9463
597 2 60.4839 76.3191 71.6404
598 1 16.3582 29.5346 49.306
599 1 30.7524 69.6731 27.4088
600 2 32.1344 1.97396 16.906
601 2 60.6736 23.5438 44.2731
602 1 74.3713 79.506 -1.57816
603 1 24.9035 72.7228 47.4239
604 1 67.8185 51.8452 46.9695
605 1 19.0995 58.159 3.72286
606 2 28.2404 26.1101 47.6091
607 1 11.5258 37.8351 45.7208
608 2 78.4213 48.1527 17.9128
609 1 8.75098 18.2354 12.4532
610 1 59.2016 18.7105 56.6598
611 1 63.1686 31.6246 35.4031
612 1 3.6986 29.7762 59.308
613 2 52.0548 31.2583 8.1133
614 2 17.4755 24.6993 59.8587
615 1 76.2235 67.9027 46.9227
616 2 62.5911 57.0404 26.5466
617 1 30.403 50.6447 61.7103
618 1 45.6285 12.5862 41.4929
619 1 50.874 6.94431 59.4693
620 2 25.7933 31.3499 15.1068
621 2 22.5392 76.0419 32.4183
622 2 13.3704 70.2452 59.1173
623 1 59.4269 19.7147 37.118
624 2 49.2955 19.7813 53.9493
625 2 67.414 71.6412 55.1091
626 2 21.4529 67.0355 60.5369
627 2 2.37867 68.0598 28.1185
628 2 57.2281 17.936 35.6157
629 2 69.2497 70.3258 67.0889
630 2 16.2324 39.8908 65.3982
631 1 59.4711 29.2728 23.2181
632 1 56.2598 55.8216 73.0102
633 2 76.4394 8.40015 52.1469
634 1 55.4855 35.0381 39.258
635 2 58.5384 78.011 13.4318
636 1 32.4599 -2.13567 35.7079
637 1 -0.527674 52.9639 42.2732
638 1 48.0631 59.6849 66.6245
639 1 78.6198 14.7002 11.5208
640 1 32.1383 41.3237 -0.843362
641 1 77.8078 29.0717 29.0881
642 2 17.0401 -0.579878 63.4915
643 2 73.4305 24.0044 34.5839
644 2 46.7302 39.7262 39.5049
645 2 45.5738 31.6714 49.8705
646 2 32.0426 57.9547 47.372
647 1 5.28951 22.8445 13.4948
648 2 68.7431 23.8832 45.6478
649 1 25.2399 24.7403 2.94676
650 1 14.8311 -1.94911 27.4957
651 1 -0.908305 60.182 76.3413
652 1 44.0818 46.5589 72.4109
653 1 64.3049 45.5058 63.8279
654 2 9.78113 64.8452 28.1439
655 2 0.921574 45.4425 34.5521
656 2 8.90783 23.0051 75.1325
657 1 2.95211 63.1528 5.55832
658 1 54.7515 5.17609 43.9872
659 2 69.0963 54.8262 48.3237
660 2 41.7812 57.7505 27.4766
661 2 8.26072 37.6156 78.7665
662 2 10.1916 41.8582 24.1829
663 1 16.2731 69.0214 49.5686
664 1 54.4336 69.7829 2.46318
665 1 31.3185 61.571 11.9653
666 1 68.8326 79.2389 37.9214
667 1 70.1948 1.14878 45.9657
668 1 64.1723 13.1462 23.7517
669 1 71.768 43.2983 5.55264
670 1 61.0972 1.60912 4.03757
671 1 1.54439 7.03361 79.3476
672 2 67.9571 53.0704 67.511
673 2 30.8772 45.3962 65.9117
674 2 69.0556 2.66089 35.4906
675 1 -0.607296 3.87364 59.4765
676 1 43.1539 59.2451 69.7909
677 1 62.4368 47.1057 68.0635
678 2 36.2128 36.8831 64.9579
679 1 21.971 73.3336 59.5195
680 1 71.1686 26.9275 40.0794
681 1 -1.29555 8.90196 43.4233
682 2 24.526 78.7722 12.745
683 1 22.3087 10.5452 72.0972
684 1 15.1825 12.7202 9.10543
685 1 19.5607 5.85621 56.2258
686 2 47.4655 18.9541 31.1187
687 1 16.9196 20.7838 72.0626
688 1 73.9163 59.0037 22.2691
689 1 4.549 26.6422 69.7654
690 1 14.7001 31.8218 26.8553
691 1 28.6206 2.20978 69.4727
692 2 30.625 23.6971 40.4931
693 1 70.1556 47.8819 53.5504
694 1 28.7748 60.9717 71.1945
695 1 58.437 71.3339 27.6051
696 2 17.4585 13.9215 63.3767
697 1 4.52803 53.4633 6.28833
698 1 53.0566 26.6392 51.74
699 2 62.4621 17.9976 45.7108
700 2 17.7954 50.7431 78.41
701 2 7.86982 5.62413 9.08756
702 1 53.2237 69.377 -1.33466
703 2 70.9734 37.9516 11.4645
704 1 21.0292 8.68837 35.6716
705 2 73.1883 31.6969 12.0875
706 2 9.8223 30.67 59.1627
707 2 63.7569 -2.08188 64.3108
708 2 6.10692 31.1946 8.8674
709 2 11.246 55.2863 13.4551
710 1 30.9787 37.426 77.9903
711 1 10.1913 21.5164 16.9382
712 1 60.9891 18.8491 4.75445
713 1 73.8559 26.6024 51.4468
714 1 10.3226 18.9953 71.3795
715 1 6.23679 75.5073 -1.19509
716 1 80.1263 34.1883 78.3036
717 2 30.6599 55.0512 6.13174
718 1 44.8908 21.9342 41.0244
719 2 58.8959 61.8539 10.2862
720 1 59.8428 12.5444 78.4736
721 1 58.4362 63.8628 58.7958
722 1 -1.44998 48.2704 7.46169
723 1 8.26879 2.10541 13.7412
724 1 43.4279 17.4088 32.4813
725 2 2.85237 13.1876 15.3631
726 2 41.6613 7.89354 42.735
727 1 56.8233 9.71378 25.5518
728 1 69.9927 69.5611 37.5742
729 1 40.9328 62.4834 19.3419
730 2 3.94049 21.9639 8.8025
731 1 -2.44382 17.6102 10.0158
732 2 27.9429 28.259 -0.299334
733 2 63.3244 3.44153 59.0563
734 1 66.037 10.5207 71.8579
735 2 28.6541 10.9033 -1.10473
736 2 6.2957 0.319778 49.5385
737 1 34.8686 10.2979 5.6567
738 1 -0.566054 64.1017 66.9309
739 1 16.1227 45.5948 19.7047
740 2 52.1688 -1.26252 72.5116
741 2 60.0496 13.4714 73.938
742 1 12.881 73.3586 8.61789
743 2 78.914 58.6287 38.3554
744 1 61.7054 26.3549 76.2515
745 1 9.79711 62.873 1.22306
746 2 46.2189 16.3625 66.7716
747 2 19.4348 56.8663 60.6839
748 1 71.2188 56.003 34.5674
749 1 49.6623 34.9705 18.4289
750 2 7.21531 74.034 79.4234
751 2 12.3488 73.2367 33.9699
752 1 28.273 6.85171 40.4759
753 1 29.1231 47.8736 36.5825
754 1 16.09 60.4339 58.6532
755 1 55.617 70.0519 71.7844
756 2 55.4965 49.5875 75.0547
757 2 45.7205 5.64342 28.3937
758 1 26.2708 55.3334 30.3701
759 1 -2.48578 23.2374 0.776122
760 1 79.7062 79.3948 27.4588
761 1 59.4377 54.2163 73.6342
762 1 66.3107 59.4446 35.5244
763 2 56.5014 40.7049 30.7949
764 2 13.3809 16.6546 65.8228
765 2 30.8312 38.2275 55.7209
766 1 0.984589 22.2584 9.16422
767 2 20.2232 51.4327 56.896
768 2 64.1421 71.8497 79.1716
769 1 74.0119 62.4445 30.1005
770 2 73.2811 8.7236 29.4933
771 2 30.4521 19.8761 71.4622
772 1 72.3302 66.1643 74.7926
773 2 48.7154 17.6371 58.2536
774 1 15.1332 23.1618 -0.827981
775 2 21.5823 75.8871 79.1628
776 1 13.7671 44.2076 59.4076
777 2 17.978 26.3406 43.9797
778 1 36.0364 18.1962 53.6904
779 2 44.4477 47.3691 37.0573
780 2 41.7877 64.9052 -1.11978
781 2 27.9094 44.7843 68.4793
782 1 7.52817 42.5628 62.6016
783 2 25.9799 10.5909 44.5632
784 1 54.3893 61.8325 37.8692
785 1 78.5296 31.4142 -1.82539
786 2 30.5646 26.2109 11.2478
787 1 26.6448 19.1033 45.7513
788 2 79.1232 59.9173 60.746
789 2 80.0539 39.4924 31.7966
790 2 40.9335 23.54 3.61799
791 2 75.854 5.56057 35.2517
792 1 -0.370868 57.3525 49.1218
793 1 13.415 51.1956 38.3864
794 2 34.0131 36.7086 44.1739
795 2 11.4713 19.5983 24.2739
796 2 69.0668 53.9922 17.4064
797 1 8.22559 10.0155 11.5439
798 2 -1.57789 74.0891 28.5054
799 2 17.6766 15.447 13.0971
800 1 62.9218 39.863 6.71414
801 1 45.0355 0.754848 1.08232
802 2 -1.4051 39.6241 49.3871
803 2 65.2215 61.6129 40.1629
804 1 63.0045 59.215 -2.0149
805 2 59.8561 54.942 17.9248
806 2 20.9706 17.1649 78.0746
807 2 64.7081 46.1061 66.4878
808 1 13.5958 19.061 35.874
809 1 1.26503 22.8226 68.9156
810 2 57.3022 14.5099 59.3787
811 2 59.6856 13.8292 6.82238
812 2 49.2554 29.272 23.5851
813 2 20.4169 17.5375 34.3174
814 1 47.309 68.506 32.9207
815 2 68.2215 53.0851 -0.399119
816 2 16.6125 1.24649 17.9515
817 2 1.28075 15.7304 53.9534
818 1 46.4102 0.799584 56.199
819 1 47.9805 27.732 57.3184
820 2 21.2011 31.2326 51.6937
821 1 28.3584 -0.287745 79.6795
822 1 76.1796 32.8107 20.4595
823 1 39.5759 -0.595778 71.0719
824 1 61.8816 61.8393 9.97325
825 1 75.7312 27.9008 42.494
826 2 64.2307 35.7905 9.74704
827 2 35.2292 35.2175 24.3375
828 2 17.6919 18.3544 0.900048
829 1 36.329 42.9798 25.6921
830 2 44.1284 59.0111 56.3718
831 1 21.2919 65.3357 23.8605
832 2 68.0136 78.3897 7.81361
833 2 52.9627 8.35453 19.6481
834 2 16.1163 76.9664 -2.32052
835 2 73.9423 67.6183 52.1376
836 2 -1.13096 25.0211 24.2235
837 1 9.93595 33.0967 75.7923
838 1 15.3058 70.6174 9.23182
839 2 59.0991 2.64146 12.3605
840 1 50.2403 79.554 47.0443
841 1 73.4209 5.40986 63.3875
842 1 73.2885 33.7929 25.8618
843 1 13.2823 35.9908 24.5848
844 1 40.8256 40.3838 38.7578
845 2 40.3312 61.2419 42.7476
846 2 78.7293 7.60902 8.56255
847 2 23.0638 30.75 49.9282
848 1 33.87 65.7533 56.0792
849 1 33.2479 70.9254 26.92
850 1 72.7463 64.1115 76.7481
851 2 18.6452 7.86827 16.3131
852 2 72.3668 19.0404 11.8974
853 1 8.75032 3.06251 62.5837
854 1 51.1597 20.4222 18.6668
855 1 49.5972 20.2432 9.02344
856 1 51.9053 78.3504 68.6961
857 2 65.4355 14.6097 47.8729
858 1 75.6303 49.5091 58.5958
859 1 21.047 0.107713 22.2894
860 1 45.1838 30.542 72.3477
861 1 2.10685 30.1256 41.5599
862 1 64.6361 33.2212 26.9534
863 2 60.8089 -0.378184 9.82711
864 1 31.8273 6.51214 0.0874219
865 1 8.63812 18.6718 57.139
866 2 20.4287 33.6006 79.8621
867 1 29.2445 25.094 45.1244
868 1 -2.0656 67.4238 50.3073
869 1 64.077 27.3308 9.60787
870 1 30.5269 44.2325 13.9387
871 1 78.7469 68.6383 78.6161
872 1 74.4166 18.7983 28.7505
873 2 -0.279041 22.9821 13.0171
874 2 7.39327 55.5046 54.8493
875 1 14.2683 4.8851 6.74398
876 2 70.0461 39.7343 24.5668
877 2 23.9163 69.956 69.6076
878 2 6.26302 -0.13518 17.416
879 1 26.9738 3.60622 55.9332
880 1 62.0864 10.4031 63.514
881 2 25.2562 46.1793 18.276
882 1 67.4042 63.2108 21.6363
883 1 17.9757 12.105 42.2535
884 2 25.9573 29.1063 59.8491
885 1 50.2523 5.82983 27.5053
886 2 74.7001 32.4821 64.9753
887 1 77.7771 -2.00673 77.5029
888 1 23.9279 75.0578 20.2985
889 1 43.3804 59.9811 53.4405
890 1 54.3835 66.574 40.9292
891 1 46.785 69.9637 80.3743
892 1 64.0277 75.5959 9.70653
893 2 32.9315 79.0391 65.3426
894 1 69.4356 33.0837 3.78106
895 2 64.6348 33.5561 0.793318
896 2 33.5026 46.7218 80.204
897 1 44.7096 42.2642 78.5054
898 1 6.84125 -0.105045 32.073
899 2 49.5819 53.351 72.9084
900 1 31.4864 24.4035 13.0509
901 2 48.8714 36.1404 -2.13112
902 1 29.3235 60.3307 32.5028
903 1 57.7135 63.2297 79.1709
904 2 18.5864 46.0989 77.476
905 2 1.65199 72.3545 29.85
906 2 44.9911 70.8126 14.9981
907 2 6.83923 49.948 61.0894
908 2 23.5647 51.6741 60.5589
909 2 35.6171 55.4185 60.2724
910 1 17.9456 22.3936 4.57466
911 2 37.2708 64.3245 47.2553
912 1 55.1243 15.6829 -2.16253
913 1 14.5319 26.4329 17.2055
914 1 78.0047 30.315 21.4894
915 1 5.18368 57.8546 75.0886
916 1 19.5005 53.0621 25.7975
917 2 28.2122 25.6084 32.6064
918 2 9.69834 15.522 31
919 1 54.0794 2.43577 67.0128
920 2 76.1589 11.9482 17.0441
921 1 50.2063 51.9396 46.5019
922 2 68.511 65.7 9.69721
923 2 72.0755 8.35869 39.8326
924 2 8.24116 57.6488 16.5267
925 2 10.1903 55.1944 23.0812
926 2 65.8162 1.72959 49.2525
927 2 10.7451 2.9703 14.2622
928 2 61.4952 15.1066 66.7094
929 2 61.8987 54.0589 60.4245
930 1 50.5202 -0.694895 6.65078
931 1 18.1943 78.8391 21.0972
932 1 78.6063 59.8026 43.5002
933 1 76.8442 39.8625 42.6733
934 1 73.6099 21.1851 10.2558
935 2 38.6739 55.3196 35.2581
936 1 38.7036 73.7855 64.0655
937 1 59.7588 56.0698 4.96443
938 1 46.1592 55.8454 34.2861
939 1 70.6514 30.9698 22.4808
940 2 10.9304 7.52665 51.5617
941 1 67.2961 27.4923 -0.543049
942 2 26.0952 35.9331 61.4698
943 1 44.5581 5.59514 63.1743
944 2 54.6102 75.9576 41.6342
945 2 46.8615 60.9737 43.191
946 1 24.1809 23.2288 61.693
947 1 65.2399 -0.522209 7.49377
948 2 69.9202 51.2636 10.2432
949 1 27.4548 6.49812 5.31669
950 1 34.2638 77.5661 16.2512
951 1 8.44214 31.7939 61.5801
952 2 28.9403 43.9881 36.0836
953 1 14.0711 28.1259 47.3783
954 2 11.9318 25.202 28.7826
955 2 17.0705 41.636 8.01075
956 2 23.9247 21.576 13.8251
957 1 39.059 8.60638 41.6897
958 1 34.2755 59.8306 12.731
959 1 34.9461 22.226 19.0511
960 1 78.9338 12.1164 57.9658
961 1 2.85402 74.1704 31.7391
962 2 36.1535 40.2161 23.6413
963 2 72.4525 57.6695 47.9162
964 2 17.6344 14.3761 47.0009
965 2 45.7981 32.8761 7.0926
966 2 74.5528 7.97713 77.4096
967 2 72.6031 11.93 71.1436
968 2 69.464 3.07152 68.8233
969 1 67.5809 32.2842 38.4886
970 1 2.33911 69.6103 42.1616
971 1 39.471 48.8176 1.96179
972 2 25.9336 64.7149 79.6874
973 2 76.3893 -1.8412 13.5726
974 2 36.9026 14.0289 74.3017
975 1 72.6801 9.58115 34.3817
976 2 35.0388 45.666 78.8614
977 1 26.1046 15.4289 73.9578
978 1 4.02294 9.00391 28.5602
979 2 58.1611 72.6075 45.8213
980 2 54.5977 55.3741 56.175
981 1 25.5356 39.3623 39.9634
982 1 27.3397 42.3858 50.2295
983 1 64.6258 71.8504 50.629
984 2 69.613 28.3185 67.1811
985 1 37.4438 66.3106 79.1402
986 2 52.7818 37.1157 44.9137
987 2 41.1942 12.9474 42.7526
988 2 51.7065 36.2862 71.8567
989 1 9.17217 28.8556 18.5649
990 1 63.5259 73.9122 34.9488
991 2 27.0481 -0.440317 25.7175
992 1 13.3471 44.528 46.2123
993 1 23.8976 28.0054 69.8534
994 1 24.5515 73.1726 74.8833
995 1 25.6627 39.7721 11.1345
996 2 68.9525 67.9264 1.74527
997 1 69.4961 34.8362 38.6307
998 2 15.846 23.2818 21.2632
999 1 42.6372 77.1033 13.2359
1000 1 -0.602864 62.4795 7.81962