units           metal
boundary        p p p
atom_style      atomic
read_data      ../../restart/T${T}.dat
read_data      ../../restart/T560.dat
Reading data file ...
  orthogonal box = (-2.4432866 -2.4432866 -2.4432866) to (80.278064 80.278064 80.278064)
  1 by 1 by 2 MPI processor grid
  reading atoms ...
  32000 atoms
  reading velocities ...
  32000 velocities
  read_data CPU = 0.203 seconds
pair_style      eam/alloy
pair_coeff      * *  ../../ZrCu.lammps.eam Zr Cu
mass 1 91.224
mass 2 63.546
neighbor            2.0 bin
neigh_modify     delay 1
timestep 0.01
thermo 30000
reset_timestep 0
thermo_style custom step temp pe etotal press vol lx ly lz
fix             1 all nvt temp ${T} ${T} 0.1
fix             1 all nvt temp 560 ${T} 0.1
fix             1 all nvt temp 560 560 0.1
thermo_modify flush yes
fix nodrift all momentum 1  linear 1 1 1
fix com_seed all recenter INIT INIT INIT shift all
fix dsf all deform 1 x  wiggle 1.0  30000.0 y volume z volume units box
fix ps1 all ave/time 1 1 30000 c_thermo_press[1] c_thermo_press[2]  c_thermo_press[3] c_thermo_press[4]  c_thermo_press[5] c_thermo_press[6]  file  stress.${T}
fix ps1 all ave/time 1 1 30000 c_thermo_press[1] c_thermo_press[2]  c_thermo_press[3] c_thermo_press[4]  c_thermo_press[5] c_thermo_press[6]  file  stress.560
dump            1 all custom 3000000 dump.${T} id type x y z
dump            1 all custom 3000000 dump.560 id type x y z
dump_modify 1 sort id
run 30000000
Per MPI rank memory allocation (min/avg/max) = 9.336 | 10.59 | 11.84 Mbytes
Step Temp PotEng TotEng Press Volume Lx Ly Lz 
       0    558.56815   -157462.98   -155152.63    307.73169    566047.47    82.721351    82.721351    82.721351 
   30000    557.45891   -157415.19   -155109.43    642.77239    566047.47    82.784141    82.689973    82.689973 
   60000    558.36222    -157427.3    -155117.8    541.68718    566047.47    82.846684    82.658755    82.658755 
   90000    560.11562   -157419.23   -155102.49    647.62362    566047.47    82.908732    82.627819    82.627819 
  120000    561.55075   -157434.41   -155111.73    577.89415    566047.47    82.970041    82.597286    82.597286 
  150000    560.57224   -157426.79   -155108.15    456.67544    566047.47    83.030368    82.567274    82.567274 
  180000    560.99026   -157411.13   -155090.76    600.88305    566047.47    83.089475    82.537901    82.537901 
  210000    566.72567    -157409.1   -155065.01    667.61365    566047.47     83.14713    82.509279    82.509279 
  240000    561.73634   -157419.07   -155095.62    652.02287    566047.47    83.203104    82.481521    82.481521 
  270000    563.34985   -157425.62    -155095.5    603.49577    566047.47    83.257178    82.454732    82.454732 
  300000    564.69149   -157409.52   -155073.85    631.69212    566047.47    83.309136    82.429015    82.429015 
  330000    556.79335   -157415.75   -155112.74    404.73068    566047.47    83.358775    82.404469    82.404469 
  360000    562.30389    -157414.1    -155088.3     734.1417    566047.47    83.405898    82.381187    82.381187 
  390000    562.41614   -157402.78   -155076.52    803.34103    566047.47    83.450319    82.359258    82.359258 
  420000    562.69239   -157385.72   -155058.32    931.41767    566047.47    83.491864    82.338765    82.338765 
  450000    561.86156   -157411.89   -155087.92    428.25741    566047.47    83.530368    82.319785    82.319785 
  480000    559.77337   -157398.87   -155083.54    565.00672    566047.47    83.565679    82.302391    82.302391 
  510000    562.26561   -157418.91   -155093.27    628.11963    566047.47    83.597657    82.286648    82.286648 
  540000    561.39932   -157400.64   -155078.59    678.39539    566047.47    83.626178    82.272615    82.272615 
  570000    562.95806   -157395.84   -155067.34    687.52482    566047.47    83.651127    82.260345    82.260345 
  600000     557.2498   -157411.09    -155106.2    586.20749    566047.47    83.672407    82.249884    82.249884 
  630000    559.48219   -157409.17   -155095.04    494.20533    566047.47    83.689934    82.241271    82.241271 
  660000    563.92222   -157369.31   -155036.81    1129.1799    566047.47    83.703638    82.234538    82.234538 
  690000    561.90681   -157390.95    -155066.8    833.80584    566047.47    83.713466    82.229711    82.229711 
  720000    558.91141   -157412.81   -155101.04    644.65119    566047.47    83.719378    82.226808    82.226808 
  750000    563.79606   -157395.78   -155063.81    734.52022    566047.47    83.721351    82.225839    82.225839 
  780000    560.67983   -157384.43   -155065.35    823.47505    566047.47    83.719378    82.226808    82.226808 
  810000    557.08034    -157396.3   -155092.11    746.53359    566047.47    83.713466    82.229711    82.229711 
  840000    560.42508   -157382.67   -155064.65    858.15561    566047.47    83.703638    82.234538    82.234538 
  870000    560.94027   -157382.87   -155062.71    931.04869    566047.47    83.689934    82.241271    82.241271 
  900000    561.52711   -157400.85   -155078.26    696.01444    566047.47    83.672407    82.249884    82.249884 
  930000    561.49039   -157421.18   -155098.75    559.82736    566047.47    83.651127    82.260345    82.260345 
  960000    561.57489   -157400.93   -155078.15    668.11558    566047.47    83.626178    82.272615    82.272615 
  990000    562.71007   -157402.81   -155075.33     656.0945    566047.47    83.597657    82.286648    82.286648 
 1020000    564.69546   -157397.52   -155061.83    624.45762    566047.47    83.565679    82.302391    82.302391 
 1050000    559.81473   -157415.54   -155100.03    565.86971    566047.47    83.530368    82.319785    82.319785 
 1080000    561.39153   -157413.73   -155091.71     549.8875    566047.47    83.491864    82.338765    82.338765 
 1110000    560.83652   -157402.55   -155082.82    760.91118    566047.47    83.450319    82.359258    82.359258 
 1140000    557.41333   -157400.61   -155095.04    563.08496    566047.47    83.405898    82.381187    82.381187 
 1170000    557.17508   -157423.86   -155119.27    549.44985    566047.47    83.358775    82.404469    82.404469 
 1200000    560.71734   -157391.94    -155072.7    713.64834    566047.47    83.309136    82.429015    82.429015 
 1230000    558.38326   -157432.43   -155122.85     428.7613    566047.47    83.257178    82.454732    82.454732 
 1260000    560.36049   -157429.65   -155111.89    375.76784    566047.47    83.203104    82.481521    82.481521 
 1290000     562.1232   -157411.25    -155086.2    623.74619    566047.47     83.14713    82.509279    82.509279 
 1320000    563.76478   -157402.32   -155070.48    684.97889    566047.47    83.089475    82.537901    82.537901 
 1350000    555.30322   -157430.41   -155133.56    365.40858    566047.47    83.030368    82.567274    82.567274 
 1380000    560.51428   -157397.51   -155079.12    910.69248    566047.47    82.970041    82.597286    82.597286 
 1410000    558.41341   -157396.88   -155087.18    530.59342    566047.47    82.908732    82.627819    82.627819 
 1440000    558.56983    -157409.5   -155099.15    602.01944    566047.47    82.846684    82.658755    82.658755 
 1470000    560.89396   -157407.74   -155087.77    685.62695    566047.47    82.784141    82.689973    82.689973 
 1500000    563.25925   -157435.26   -155105.51    434.32181    566047.47    82.721351    82.721351    82.721351 
 1530000    557.69586   -157413.87   -155107.13    733.79119    566047.47     82.65856    82.752764    82.752764 
 1560000    563.38791   -157417.26   -155086.97    552.61576    566047.47    82.596018    82.784089    82.784089 
 1590000    563.42925   -157401.56   -155071.11    790.71613    566047.47     82.53397    82.815201    82.815201 
 1620000     554.0871   -157429.12    -155137.3     373.6931    566047.47    82.472661    82.845977    82.845977 
 1650000    559.57262   -157405.86   -155091.36    634.93129    566047.47    82.412334    82.876294    82.876294 
 1680000    560.83421   -157421.17   -155101.45    539.72428    566047.47    82.353226     82.90603     82.90603 
 1710000    561.59595   -157411.99   -155089.12    701.72634    566047.47    82.295572    82.935066    82.935066 
 1740000    563.12414   -157428.47   -155099.28    544.29099    566047.47    82.239597    82.963285    82.963285 
 1770000    561.98287   -157423.97    -155099.5    489.10675    566047.47    82.185524    82.990573    82.990573 
 1800000    558.55608   -157419.63   -155109.33    575.88382    566047.47    82.133566    83.016819    83.016819 
 1830000    560.07634   -157425.06   -155108.48    445.99807    566047.47    82.083927    83.041917    83.041917 
 1860000    561.60906   -157405.79   -155082.86    697.59142    566047.47    82.036804    83.065763    83.065763 
 1890000     562.6936   -157388.73   -155061.32    952.31356    566047.47    81.992382    83.088262    83.088262 
 1920000    560.64998   -157394.72   -155075.76    793.72039    566047.47    81.950838     83.10932     83.10932 
 1950000    557.79215   -157395.09   -155087.95    686.91248    566047.47    81.912334    83.128851    83.128851 
 1980000    561.48793   -157398.22    -155075.8    724.21517    566047.47    81.877023    83.146774    83.146774 
 2010000    558.48402   -157392.01   -155082.01    652.67988    566047.47    81.845044    83.163016    83.163016 
 2040000    561.38249   -157417.45   -155095.46    551.94721    566047.47    81.816524     83.17751     83.17751 
 2070000    561.08712   -157404.61   -155083.85    679.26969    566047.47    81.791574    83.190195    83.190195 
 2100000    560.50769   -157424.58   -155106.21    605.44583    566047.47    81.770294    83.201019    83.201019 
 2130000    560.87719   -157392.33   -155072.43    806.96548    566047.47    81.752768    83.209937    83.209937 
 2160000    560.73139    -157422.7    -155103.4    459.30821    566047.47    81.739064    83.216912    83.216912 
 2190000    563.73524   -157405.67   -155073.95    648.53921    566047.47    81.729236    83.221915    83.221915 
 2220000    558.04342   -157390.63   -155082.45    621.73389    566047.47    81.723324    83.224925    83.224925 
 2250000    561.67406   -157375.13   -155051.94    668.46072    566047.47    81.721351     83.22593     83.22593 
 2280000    558.81894   -157397.49   -155086.11    604.62853    566047.47    81.723324    83.224925    83.224925 
 2310000      563.436   -157421.81   -155091.33    451.92182    566047.47    81.729236    83.221915    83.221915 
 2340000    562.23423   -157422.58   -155097.07    478.51309    566047.47    81.739064    83.216912    83.216912 
 2370000     558.7557    -157398.1   -155086.97    651.84221    566047.47    81.752768    83.209937    83.209937 
 2400000    566.08589   -157388.32   -155046.87    838.85503    566047.47    81.770294    83.201019    83.201019 
 2430000    555.41769    -157386.1   -155088.79     631.1563    566047.47    81.791574    83.190195    83.190195 
 2460000    559.01528   -157400.07   -155087.87    611.81571    566047.47    81.816524     83.17751     83.17751 
 2490000     557.9524   -157394.55   -155086.75    684.73453    566047.47    81.845044    83.163016    83.163016 
 2520000    559.41133   -157419.73    -155105.9    517.86845    566047.47    81.877023    83.146774    83.146774 
 2550000     561.0737   -157409.64   -155088.93    694.93027    566047.47    81.912334    83.128851    83.128851 
 2580000    562.29711   -157400.08   -155074.31     670.3096    566047.47    81.950838     83.10932     83.10932 
 2610000    560.98941   -157409.31   -155088.95    562.88641    566047.47    81.992382    83.088262    83.088262 
 2640000    554.34025   -157423.69   -155130.83    460.38746    566047.47    82.036804    83.065763    83.065763 
 2670000    556.53256   -157410.58   -155108.65     644.3748    566047.47    82.083927    83.041917    83.041917 
 2700000    562.20039   -157412.59   -155087.22    586.02013    566047.47    82.133566    83.016819    83.016819 
 2730000    559.32988   -157409.58   -155096.09    604.91009    566047.47    82.185524    82.990573    82.990573 
 2760000    560.84501   -157416.36   -155096.59    559.27846    566047.47    82.239597    82.963285    82.963285 
 2790000    559.44718   -157415.31   -155101.32    632.12461    566047.47    82.295572    82.935066    82.935066 
 2820000    557.21701   -157415.52   -155110.76    567.06635    566047.47    82.353226     82.90603     82.90603 
 2850000    559.90787   -157411.29    -155095.4    591.39139    566047.47    82.412334    82.876294    82.876294 
 2880000    564.22191    -157430.6   -155096.87    486.90759    566047.47    82.472661    82.845977    82.845977 
 2910000    559.84939   -157419.02   -155103.37    591.45289    566047.47     82.53397    82.815201    82.815201 
 2940000    556.84375   -157417.65   -155114.43     547.0719    566047.47    82.596018    82.784089    82.784089 
 2970000     554.4342   -157414.01   -155120.76    624.34021    566047.47     82.65856    82.752764    82.752764 
 3000000    559.82768   -157404.42   -155088.87    686.03045    566047.47    82.721351    82.721351    82.721351 
 3030000    557.14899   -157419.54   -155115.06    548.70724    566047.47    82.784141    82.689973    82.689973 
 3060000    562.42327   -157433.12   -155106.83    511.88539    566047.47    82.846684    82.658755    82.658755 
 3090000     561.4386   -157405.54   -155083.32     707.3427    566047.47    82.908732    82.627819    82.627819 
 3120000    561.02633    -157430.3   -155109.78    625.72492    566047.47    82.970041    82.597286    82.597286 
 3150000    560.55047   -157428.14   -155109.59    373.40799    566047.47    83.030368    82.567274    82.567274 
 3180000    562.20455   -157435.43   -155110.04    539.64883    566047.47    83.089475    82.537901    82.537901 
 3210000     558.5335   -157413.05   -155102.85    643.41586    566047.47     83.14713    82.509279    82.509279 
 3240000    557.27871   -157402.37   -155097.36     717.4204    566047.47    83.203104    82.481521    82.481521 
 3270000    559.86371   -157412.06   -155096.35    577.58196    566047.47    83.257178    82.454732    82.454732 
 3300000    553.78801   -157411.17   -155120.59    653.26398    566047.47    83.309136    82.429015    82.429015 
 3330000    555.75242    -157402.9    -155104.2    796.80201    566047.47    83.358775    82.404469    82.404469 
 3360000    555.98698   -157399.78   -155100.11    622.23871    566047.47    83.405898    82.381187    82.381187 
 3390000    556.76726   -157414.04   -155111.14    768.14147    566047.47    83.450319    82.359258    82.359258 
 3420000    561.21202   -157412.85   -155091.57    591.07652    566047.47    83.491864    82.338765    82.338765 
 3450000    563.42653   -157423.35   -155092.91    574.85792    566047.47    83.530368    82.319785    82.319785 
 3480000    559.75156   -157401.61   -155086.37     717.5756    566047.47    83.565679    82.302391    82.302391 
 3510000    567.19872   -157388.03   -155041.98    859.76715    566047.47    83.597657    82.286648    82.286648 
 3540000    558.65765    -157389.1   -155078.38    697.66817    566047.47    83.626178    82.272615    82.272615 
 3570000    560.55214   -157397.53   -155078.98    771.85284    566047.47    83.651127    82.260345    82.260345 
 3600000    559.76741   -157383.53   -155068.23    755.47692    566047.47    83.672407    82.249884    82.249884 
 3630000    564.15807   -157407.61   -155074.15    685.86849    566047.47    83.689934    82.241271    82.241271 
 3660000    563.28708   -157379.04   -155049.17    987.88249    566047.47    83.703638    82.234538    82.234538 
 3690000    561.41225   -157402.93   -155080.82    728.11582    566047.47    83.713466    82.229711    82.229711 
 3720000    559.13254   -157409.77   -155097.09    718.56251    566047.47    83.719378    82.226808    82.226808 
 3750000    561.35574   -157389.19   -155067.31    754.63123    566047.47    83.721351    82.225839    82.225839 
 3780000    560.97089   -157412.84   -155092.56    664.77248    566047.47    83.719378    82.226808    82.226808 
 3810000    557.20152   -157415.43   -155110.73    573.02723    566047.47    83.713466    82.229711    82.229711 
 3840000     563.7215   -157403.48   -155071.82    732.17422    566047.47    83.703638    82.234538    82.234538 
 3870000    556.27343   -157386.13   -155085.27    663.19025    566047.47    83.689934    82.241271    82.241271 
 3900000    556.74052   -157415.43   -155112.65    652.26439    566047.47    83.672407    82.249884    82.249884 
 3930000    557.31368   -157413.28   -155108.12    543.76983    566047.47    83.651127    82.260345    82.260345 
 3960000    562.52606   -157413.92   -155087.21    533.37437    566047.47    83.626178    82.272615    82.272615 
 3990000    561.87608   -157391.04   -155067.01    755.81224    566047.47    83.597657    82.286648    82.286648 
 4020000     556.1297   -157411.56    -155111.3    647.17158    566047.47    83.565679    82.302391    82.302391 
 4050000     559.7711   -157400.33   -155085.01    628.78755    566047.47    83.530368    82.319785    82.319785 
 4080000    560.35641   -157399.56   -155081.82    674.17197    566047.47    83.491864    82.338765    82.338765 
 4110000    558.30399   -157415.99   -155106.74    684.80357    566047.47    83.450319    82.359258    82.359258 
 4140000    561.96922   -157431.81   -155107.39    420.87447    566047.47    83.405898    82.381187    82.381187 
 4170000    557.52773    -157407.4   -155101.36    747.61739    566047.47    83.358775    82.404469    82.404469 
 4200000    562.69284   -157386.73   -155059.33    871.20222    566047.47    83.309136    82.429015    82.429015 
 4230000    563.21868   -157396.45   -155066.87    765.55919    566047.47    83.257178    82.454732    82.454732 
 4260000    564.02175   -157418.07   -155085.17     593.8576    566047.47    83.203104    82.481521    82.481521 
 4290000     560.6083   -157412.24   -155093.46    599.92358    566047.47     83.14713    82.509279    82.509279 
 4320000    562.45182   -157422.34   -155095.93    429.98768    566047.47    83.089475    82.537901    82.537901 
 4350000    560.63938   -157412.28   -155093.37    614.62265    566047.47    83.030368    82.567274    82.567274 
 4380000      559.033   -157417.46   -155105.19    585.14885    566047.47    82.970041    82.597286    82.597286 
 4410000    560.20238   -157435.79   -155118.69    431.44224    566047.47    82.908732    82.627819    82.627819 
 4440000    560.90058   -157426.82   -155106.83    429.09792    566047.47    82.846684    82.658755    82.658755 
 4470000    558.59255   -157434.96   -155124.51    374.58904    566047.47    82.784141    82.689973    82.689973 
 4500000     563.1114   -157416.59   -155087.45    615.81719    566047.47    82.721351    82.721351    82.721351 
 4530000    562.18461    -157439.2    -155113.9    396.13264    566047.47     82.65856    82.752764    82.752764 
 4560000    558.46108   -157408.03   -155098.12    437.41219    566047.47    82.596018    82.784089    82.784089 
 4590000    560.34218   -157396.51   -155078.83    813.36474    566047.47     82.53397    82.815201    82.815201 
 4620000    559.58811   -157417.93   -155103.37    474.97966    566047.47    82.472661    82.845977    82.845977 
 4650000    559.85286    -157414.4   -155098.74    588.33431    566047.47    82.412334    82.876294    82.876294 
 4680000    559.08409   -157412.58    -155100.1    583.08455    566047.47    82.353226     82.90603     82.90603 
 4710000    557.26359   -157409.47   -155104.52    582.98796    566047.47    82.295572    82.935066    82.935066 
 4740000    556.69898   -157412.96   -155110.34    614.53367    566047.47    82.239597    82.963285    82.963285 
 4770000    556.39672   -157417.68   -155116.31    525.02135    566047.47    82.185524    82.990573    82.990573 
 4800000    562.46799   -157399.77    -155073.3    762.15402    566047.47    82.133566    83.016819    83.016819 
 4830000    555.08628   -157442.92   -155146.97    404.83635    566047.47    82.083927    83.041917    83.041917 
 4860000    562.42824   -157436.39   -155110.08    481.25318    566047.47    82.036804    83.065763    83.065763 
 4890000    559.49038    -157417.9   -155103.74    537.66266    566047.47    81.992382    83.088262    83.088262 
 4920000    556.23687   -157411.52   -155110.81    611.87812    566047.47    81.950838     83.10932     83.10932 
 4950000    561.35498   -157391.87      -155070    751.08535    566047.47    81.912334    83.128851    83.128851 
 4980000    559.96728   -157403.66   -155087.52     618.7718    566047.47    81.877023    83.146774    83.146774 
 5010000    563.14095   -157390.76    -155061.5    749.03054    566047.47    81.845044    83.163016    83.163016 
 5040000    561.47257   -157406.31   -155083.95    629.41052    566047.47    81.816524     83.17751     83.17751 
 5070000    562.08439   -157408.04   -155083.14    580.91859    566047.47    81.791574    83.190195    83.190195 
 5100000    563.00845   -157419.38   -155090.67    524.60404    566047.47    81.770294    83.201019    83.201019 
 5130000    554.48155   -157412.37   -155118.93    597.33432    566047.47    81.752768    83.209937    83.209937 
 5160000    558.56714   -157411.03   -155100.69    643.26871    566047.47    81.739064    83.216912    83.216912 
 5190000    561.02151   -157393.07   -155072.58    594.19812    566047.47    81.729236    83.221915    83.221915 
 5220000    561.63542   -157412.03      -155089    559.80269    566047.47    81.723324    83.224925    83.224925 
 5250000    559.67672   -157396.36   -155081.43     721.3896    566047.47    81.721351     83.22593     83.22593 
 5280000    566.68575   -157404.42    -155060.5    711.46502    566047.47    81.723324    83.224925    83.224925 
 5310000    554.45494    -157411.1   -155117.77    504.09717    566047.47    81.729236    83.221915    83.221915 
 5340000    561.42143   -157397.25    -155075.1    674.95032    566047.47    81.739064    83.216912    83.216912 
 5370000    562.02644    -157405.7   -155081.05    541.94374    566047.47    81.752768    83.209937    83.209937 
 5400000    563.18779   -157384.52   -155055.07     875.2866    566047.47    81.770294    83.201019    83.201019 
 5430000     559.2758   -157399.51   -155086.24    685.15238    566047.47    81.791574    83.190195    83.190195 
 5460000    554.16023   -157395.09   -155102.97    733.74969    566047.47    81.816524     83.17751     83.17751 
 5490000    560.00573   -157415.55   -155099.26     531.9324    566047.47    81.845044    83.163016    83.163016 
 5520000    555.06392   -157399.18   -155103.33    567.57013    566047.47    81.877023    83.146774    83.146774 
 5550000    562.16588   -157411.32   -155086.09     609.7655    566047.47    81.912334    83.128851    83.128851 
 5580000    558.97407   -157422.53    -155110.5    552.57718    566047.47    81.950838     83.10932     83.10932 
 5610000    557.12272   -157392.69   -155088.32    687.25151    566047.47    81.992382    83.088262    83.088262 
 5640000    558.67279   -157397.57   -155086.79    659.85306    566047.47    82.036804    83.065763    83.065763 
 5670000    562.17065   -157395.95    -155070.7    708.66683    566047.47    82.083927    83.041917    83.041917 
 5700000    565.31514   -157445.97   -155107.71    566.85245    566047.47    82.133566    83.016819    83.016819 
 5730000    561.36128   -157410.26   -155088.36    597.61897    566047.47    82.185524    82.990573    82.990573 
 5760000    562.33496   -157436.48   -155110.55    526.31756    566047.47    82.239597    82.963285    82.963285 
 5790000    561.06775    -157401.2   -155080.52    590.92719    566047.47    82.295572    82.935066    82.935066 
 5820000    558.73781   -157407.76   -155096.72     574.2274    566047.47    82.353226     82.90603     82.90603 
 5850000    560.29897   -157437.81   -155120.31    445.41964    566047.47    82.412334    82.876294    82.876294 
 5880000    558.17977   -157434.98   -155126.24    441.34926    566047.47    82.472661    82.845977    82.845977 
 5910000    558.29749   -157414.64   -155105.42    635.38379    566047.47     82.53397    82.815201    82.815201 
 5940000    561.18279   -157412.66   -155091.49    599.25128    566047.47    82.596018    82.784089    82.784089 
 5970000    565.39514   -157429.08   -155090.49    613.52461    566047.47     82.65856    82.752764    82.752764 
 6000000    564.36086      -157418    -155083.7    589.73619    566047.47    82.721351    82.721351    82.721351 
 6030000    560.96444    -157411.7   -155091.44    548.12372    566047.47    82.784141    82.689973    82.689973 
 6060000    565.12698   -157423.24   -155085.77    504.20112    566047.47    82.846684    82.658755    82.658755 
 6090000    559.47103   -157413.92   -155099.84    610.90494    566047.47    82.908732    82.627819    82.627819 
 6120000    559.61657   -157412.32   -155097.63    592.24274    566047.47    82.970041    82.597286    82.597286 
 6150000    559.92981   -157439.17   -155123.19    490.47665    566047.47    83.030368    82.567274    82.567274 
 6180000    563.07698   -157431.89   -155102.89    470.84199    566047.47    83.089475    82.537901    82.537901 
 6210000    558.29425   -157432.42    -155123.2    368.41079    566047.47     83.14713    82.509279    82.509279 
 6240000    557.94331   -157417.62   -155109.86     520.2488    566047.47    83.203104    82.481521    82.481521 
 6270000    560.73354   -157430.88   -155111.58    434.39146    566047.47    83.257178    82.454732    82.454732 
 6300000    556.09988   -157417.75   -155117.61    564.47194    566047.47    83.309136    82.429015    82.429015 
 6330000    561.82629   -157406.94   -155083.12    614.53021    566047.47    83.358775    82.404469    82.404469 
 6360000    562.32498   -157411.49   -155085.61    714.47375    566047.47    83.405898    82.381187    82.381187 
 6390000    564.54154   -157404.27   -155069.22    671.73687    566047.47    83.450319    82.359258    82.359258 
 6420000     558.5938   -157401.74   -155091.29    614.99817    566047.47    83.491864    82.338765    82.338765 
 6450000    555.43994   -157415.44   -155118.04    408.89869    566047.47    83.530368    82.319785    82.319785 
 6480000    565.17999   -157412.98   -155075.29    618.08904    566047.47    83.565679    82.302391    82.302391 
 6510000    565.19468   -157413.63   -155075.88    535.44367    566047.47    83.597657    82.286648    82.286648 
 6540000     559.0482   -157409.08   -155096.75     748.8891    566047.47    83.626178    82.272615    82.272615 
 6570000    563.75548   -157392.15   -155060.34    898.50774    566047.47    83.651127    82.260345    82.260345 
 6600000    556.99895   -157405.71   -155101.85    552.63045    566047.47    83.672407    82.249884    82.249884 
 6630000    560.34099   -157393.85   -155076.17    665.26518    566047.47    83.689934    82.241271    82.241271 
 6660000    559.22319   -157385.66    -155072.6    766.39655    566047.47    83.703638    82.234538    82.234538 
 6690000    558.09752   -157385.57   -155077.17    705.51428    566047.47    83.713466    82.229711    82.229711 
 6720000    559.62254   -157409.79   -155095.09    612.63577    566047.47    83.719378    82.226808    82.226808 
 6750000    558.01692   -157403.98   -155095.92    598.17305    566047.47    83.721351    82.225839    82.225839 
 6780000    556.71101      -157390   -155087.34    707.83569    566047.47    83.719378    82.226808    82.226808 
 6810000    557.73806    -157401.9   -155094.98    594.46178    566047.47    83.713466    82.229711    82.229711 
 6840000    559.84637   -157426.19   -155110.56    514.98716    566047.47    83.703638    82.234538    82.234538 
 6870000    564.05523   -157400.91   -155067.87    777.50628    566047.47    83.689934    82.241271    82.241271 
 6900000    560.02636    -157428.3   -155111.92    441.15284    566047.47    83.672407    82.249884    82.249884 
 6930000    555.23261   -157405.71   -155109.16    621.80934    566047.47    83.651127    82.260345    82.260345 
 6960000    558.95224    -157410.3   -155098.36    575.77599    566047.47    83.626178    82.272615    82.272615 
 6990000    561.47308   -157385.03   -155062.67    762.86874    566047.47    83.597657    82.286648    82.286648 
 7020000    560.62692   -157424.39   -155105.53    424.62192    566047.47    83.565679    82.302391    82.302391 
 7050000    558.88748   -157396.42   -155084.76    563.61776    566047.47    83.530368    82.319785    82.319785 
 7080000    563.25893   -157414.68   -155084.93    494.85492    566047.47    83.491864    82.338765    82.338765 
 7110000    557.85976   -157395.06   -155087.65    688.54771    566047.47    83.450319    82.359258    82.359258 
 7140000    558.69265   -157411.36   -155100.49    702.41035    566047.47    83.405898    82.381187    82.381187 
 7170000    562.81091   -157416.31   -155088.42    695.99677    566047.47    83.358775    82.404469    82.404469 
 7200000    560.12046   -157442.99   -155126.22    490.39073    566047.47    83.309136    82.429015    82.429015 
 7230000    558.69737    -157407.8   -155096.91    670.65154    566047.47    83.257178    82.454732    82.454732 
 7260000    564.63957   -157400.65   -155065.19    577.63848    566047.47    83.203104    82.481521    82.481521 
 7290000     566.1394    -157415.6   -155073.93    793.08537    566047.47     83.14713    82.509279    82.509279 
 7320000    557.71609   -157419.33    -155112.5    573.48904    566047.47    83.089475    82.537901    82.537901 
 7350000    555.49961   -157412.65      -155115    597.35899    566047.47    83.030368    82.567274    82.567274 
 7380000    563.36464   -157425.64   -155095.45    591.47164    566047.47    82.970041    82.597286    82.597286 
 7410000    565.81022   -157415.23   -155074.92    681.04023    566047.47    82.908732    82.627819    82.627819 
 7440000    562.21223   -157419.16   -155093.74     515.7393    566047.47    82.846684    82.658755    82.658755 
 7470000    561.58706   -157418.23    -155095.4    582.53469    566047.47    82.784141    82.689973    82.689973 
 7500000    560.92121   -157407.83   -155087.75    647.99625    566047.47    82.721351    82.721351    82.721351 
 7530000    562.86581   -157419.28   -155091.15    668.14067    566047.47     82.65856    82.752764    82.752764 
 7560000    559.87077   -157413.81   -155098.08    591.99035    566047.47    82.596018    82.784089    82.784089 
 7590000    553.88054   -157416.84   -155125.88      525.667    566047.47     82.53397    82.815201    82.815201 
 7620000    563.13695   -157427.89   -155098.64     549.9117    566047.47    82.472661    82.845977    82.845977 
 7650000    562.93588   -157426.77   -155098.36    537.25189    566047.47    82.412334    82.876294    82.876294 
 7680000    556.19162   -157407.66   -155107.14    611.87604    566047.47    82.353226     82.90603     82.90603 
 7710000    563.13713   -157418.75   -155089.51    634.51401    566047.47    82.295572    82.935066    82.935066 
 7740000    560.48955   -157402.66   -155084.37    662.02257    566047.47    82.239597    82.963285    82.963285 
 7770000    558.59016   -157419.02   -155108.58    501.97379    566047.47    82.185524    82.990573    82.990573 
 7800000    564.66205   -157395.66   -155060.11    973.68896    566047.47    82.133566    83.016819    83.016819 
 7830000     560.6713   -157412.81   -155093.77    635.53854    566047.47    82.083927    83.041917    83.041917 
 7860000    558.04315   -157400.82   -155092.64    677.74431    566047.47    82.036804    83.065763    83.065763 
 7890000    564.35041   -157395.48   -155061.22    707.42756    566047.47    81.992382    83.088262    83.088262 
 7920000    560.66093   -157385.18   -155066.18    765.90405    566047.47    81.950838     83.10932     83.10932 
 7950000    557.42841   -157419.34   -155113.71    459.39212    566047.47    81.912334    83.128851    83.128851 
 7980000    556.73227   -157402.48   -155099.73    725.72291    566047.47    81.877023    83.146774    83.146774 
 8010000     554.4648   -157405.96   -155112.59    663.16538    566047.47    81.845044    83.163016    83.163016 
 8040000    559.89293   -157418.31   -155102.49    650.00314    566047.47    81.816524     83.17751     83.17751 
 8070000    553.92063   -157410.38   -155119.26    738.15586    566047.47    81.791574    83.190195    83.190195 
 8100000    557.39797   -157400.65   -155095.14    648.48055    566047.47    81.770294    83.201019    83.201019 
 8130000    561.08456   -157397.87   -155077.11    654.34887    566047.47    81.752768    83.209937    83.209937 
 8160000    562.02099   -157373.66   -155049.03     898.6349    566047.47    81.739064    83.216912    83.216912 
 8190000    561.81991   -157382.54   -155058.75    914.57864    566047.47    81.729236    83.221915    83.221915 
 8220000     559.8923   -157396.06   -155080.23    679.80457    566047.47    81.723324    83.224925    83.224925 
 8250000    559.12923    -157391.1   -155078.44    650.24212    566047.47    81.721351     83.22593     83.22593 
 8280000    558.25907   -157383.94   -155074.87    775.29254    566047.47    81.723324    83.224925    83.224925 
 8310000    556.90006   -157397.72   -155094.27    497.69543    566047.47    81.729236    83.221915    83.221915 
 8340000    567.86644   -157404.38   -155055.58    748.71525    566047.47    81.739064    83.216912    83.216912 
 8370000    559.91349   -157395.18   -155079.26    536.53567    566047.47    81.752768    83.209937    83.209937 
 8400000    560.44248   -157403.08   -155084.98    704.43064    566047.47    81.770294    83.201019    83.201019 
 8430000    565.78589    -157393.4    -155053.2     639.0679    566047.47    81.791574    83.190195    83.190195 
 8460000    554.35103   -157396.36   -155103.46    727.49521    566047.47    81.816524     83.17751     83.17751 
 8490000    557.96652   -157393.51   -155085.65    716.46544    566047.47    81.845044    83.163016    83.163016 
 8520000    561.76009   -157414.58   -155091.03    589.27335    566047.47    81.877023    83.146774    83.146774 
 8550000    560.00887   -157399.88   -155083.57    553.25417    566047.47    81.912334    83.128851    83.128851 
 8580000    560.86386   -157407.91   -155088.07    754.76957    566047.47    81.950838     83.10932     83.10932 
 8610000    558.10615    -157411.6   -155103.17     598.3164    566047.47    81.992382    83.088262    83.088262 
 8640000    556.60451    -157412.1   -155109.88    547.24008    566047.47    82.036804    83.065763    83.065763 
 8670000    562.40072   -157412.98   -155086.78    586.13104    566047.47    82.083927    83.041917    83.041917 
 8700000    558.50521   -157434.06   -155123.97    397.06127    566047.47    82.133566    83.016819    83.016819 
 8730000    560.29075   -157419.26   -155101.79    580.70262    566047.47    82.185524    82.990573    82.990573 
 8760000    559.81336   -157431.59    -155116.1    450.32601    566047.47    82.239597    82.963285    82.963285 
 8790000    562.52663   -157394.37   -155067.65    838.60685    566047.47    82.295572    82.935066    82.935066 
 8820000    557.06241   -157413.31   -155109.19    480.20158    566047.47    82.353226     82.90603     82.90603 
 8850000    558.09187   -157406.36   -155097.98    586.88904    566047.47    82.412334    82.876294    82.876294 
 8880000    563.63695      -157406   -155074.69    632.57119    566047.47    82.472661    82.845977    82.845977 
 8910000     560.4744   -157416.95   -155098.72    698.98812    566047.47     82.53397    82.815201    82.815201 
 8940000    558.28871   -157421.03   -155111.84     568.2402    566047.47    82.596018    82.784089    82.784089 
 8970000    562.64673    -157400.7   -155073.48    747.19739    566047.47     82.65856    82.752764    82.752764 
 9000000    558.27943   -157403.56   -155094.41      739.742    566047.47    82.721351    82.721351    82.721351 
 9030000    565.68222   -157416.01   -155076.24    593.55835    566047.47    82.784141    82.689973    82.689973 
 9060000    554.57744    -157401.4   -155107.56     624.1542    566047.47    82.846684    82.658755    82.658755 
 9090000    558.04057   -157408.89   -155100.72    537.29124    566047.47    82.908732    82.627819    82.627819 
 9120000    561.49807    -157417.2   -155094.73    658.66118    566047.47    82.970041    82.597286    82.597286 
 9150000    557.67814   -157418.44   -155111.78    587.21293    566047.47    83.030368    82.567274    82.567274 
 9180000    557.15087   -157411.54   -155107.06     456.7996    566047.47    83.089475    82.537901    82.537901 
 9210000    557.41843   -157415.23   -155109.64    520.27579    566047.47     83.14713    82.509279    82.509279 
 9240000    558.97558    -157419.8   -155107.77    660.47597    566047.47    83.203104    82.481521    82.481521 
 9270000    557.44025   -157414.44   -155108.76      468.705    566047.47    83.257178    82.454732    82.454732 
 9300000    561.98016   -157413.65   -155089.19    522.58165    566047.47    83.309136    82.429015    82.429015 
 9330000    560.35988   -157414.04   -155096.28     529.1266    566047.47    83.358775    82.404469    82.404469 
 9360000    561.91625   -157391.21   -155067.02    689.06295    566047.47    83.405898    82.381187    82.381187 
 9390000    557.55252   -157408.63   -155102.48    661.58042    566047.47    83.450319    82.359258    82.359258 
 9420000     564.0241   -157380.84   -155047.93    818.87619    566047.47    83.491864    82.338765    82.338765 
 9450000     557.9285   -157419.72   -155112.02    554.99881    566047.47    83.530368    82.319785    82.319785 
 9480000    557.13966   -157420.17   -155115.73    483.60806    566047.47    83.565679    82.302391    82.302391 
 9510000    561.21405   -157417.87   -155096.58    588.58584    566047.47    83.597657    82.286648    82.286648 
 9540000      560.785   -157396.44   -155076.92    757.83265    566047.47    83.626178    82.272615    82.272615 
 9570000    558.46883   -157413.43   -155103.49    513.38562    566047.47    83.651127    82.260345    82.260345 
 9600000    557.78417   -157399.06   -155091.95     631.4932    566047.47    83.672407    82.249884    82.249884 
 9630000    558.24983   -157400.62   -155091.59    566.57978    566047.47    83.689934    82.241271    82.241271 
 9660000    562.76253   -157401.23   -155073.54    611.34458    566047.47    83.703638    82.234538    82.234538 
 9690000    558.57239   -157398.27   -155087.91    523.79351    566047.47    83.713466    82.229711    82.229711 
 9720000    559.26559   -157400.82   -155087.59    649.93335    566047.47    83.719378    82.226808    82.226808 
 9750000    561.18275   -157412.02   -155090.86    509.27884    566047.47    83.721351    82.225839    82.225839 
 9780000    556.02569   -157419.75   -155119.92     513.3293    566047.47    83.719378    82.226808    82.226808 
 9810000    558.26194   -157392.47   -155083.39    688.84682    566047.47    83.713466    82.229711    82.229711 
 9840000    558.82512   -157407.52   -155096.11    572.37874    566047.47    83.703638    82.234538    82.234538 
 9870000    560.56457   -157410.98   -155092.38    607.09225    566047.47    83.689934    82.241271    82.241271 
 9900000    563.25243   -157404.44   -155074.72    712.51061    566047.47    83.672407    82.249884    82.249884 
 9930000    556.51074    -157416.8   -155114.97    461.52017    566047.47    83.651127    82.260345    82.260345 
 9960000     558.0033   -157399.99   -155091.98    536.10134    566047.47    83.626178    82.272615    82.272615 
 9990000    558.80502   -157402.17   -155090.84    587.00613    566047.47    83.597657    82.286648    82.286648 
10020000    561.58444   -157427.27   -155104.45    385.97066    566047.47    83.565679    82.302391    82.302391 
10050000    558.05707   -157406.05   -155097.81     587.2856    566047.47    83.530368    82.319785    82.319785 
10080000     557.0151   -157412.88   -155108.96    597.93431    566047.47    83.491864    82.338765    82.338765 
10110000    559.89807   -157435.72   -155119.87    563.98706    566047.47    83.450319    82.359258    82.359258 
10140000    558.06945    -157436.2   -155127.91    468.26459    566047.47    83.405898    82.381187    82.381187 
10170000    557.00966   -157432.62   -155128.72    449.96178    566047.47    83.358775    82.404469    82.404469 
10200000    558.05583   -157415.41   -155107.18    490.07721    566047.47    83.309136    82.429015    82.429015 
10230000    563.68282   -157412.84   -155081.34    646.56061    566047.47    83.257178    82.454732    82.454732 
10260000    557.21469   -157410.87   -155106.13     558.2219    566047.47    83.203104    82.481521    82.481521 
10290000    561.14186   -157421.11   -155100.12    472.47091    566047.47     83.14713    82.509279    82.509279 
10320000    562.31357   -157408.57   -155082.73    529.00356    566047.47    83.089475    82.537901    82.537901 
10350000    556.29822   -157424.59   -155123.63    470.86917    566047.47    83.030368    82.567274    82.567274 
10380000    563.58746   -157419.59   -155088.48    575.69881    566047.47    82.970041    82.597286    82.597286 
10410000     557.0632   -157434.39   -155130.27    431.79113    566047.47    82.908732    82.627819    82.627819 
10440000    560.14697   -157420.94   -155104.07    568.61401    566047.47    82.846684    82.658755    82.658755 
10470000    553.88397   -157400.03   -155109.05    667.89194    566047.47    82.784141    82.689973    82.689973 
10500000    560.63289   -157419.77   -155100.88    587.28894    566047.47    82.721351    82.721351    82.721351 
10530000    557.59458   -157423.37   -155117.05    516.11688    566047.47     82.65856    82.752764    82.752764 
10560000    563.47096   -157427.54   -155096.92    354.40412    566047.47    82.596018    82.784089    82.784089 
10590000    555.12928   -157424.51   -155128.39    516.83524    566047.47     82.53397    82.815201    82.815201 
10620000    557.85877   -157426.93   -155119.52    535.26401    566047.47    82.472661    82.845977    82.845977 
10650000    560.40691   -157439.88   -155121.93    431.04211    566047.47    82.412334    82.876294    82.876294 
10680000    560.29397   -157415.32   -155097.83     556.7036    566047.47    82.353226     82.90603     82.90603 
10710000    558.90289   -157427.77   -155116.04    591.57798    566047.47    82.295572    82.935066    82.935066 
10740000    560.11785   -157411.19   -155094.43     677.4483    566047.47    82.239597    82.963285    82.963285 
10770000    558.46961   -157400.17   -155090.23    662.70576    566047.47    82.185524    82.990573    82.990573 
10800000    557.20035   -157389.84   -155085.15    673.19003    566047.47    82.133566    83.016819    83.016819 
10830000    560.74786   -157410.71   -155091.35    557.02819    566047.47    82.083927    83.041917    83.041917 
10860000    563.56914    -157412.3   -155081.27    700.64218    566047.47    82.036804    83.065763    83.065763 
10890000    562.15278   -157417.63   -155092.45    762.57129    566047.47    81.992382    83.088262    83.088262 
10920000    558.59404   -157413.34   -155102.89    571.67683    566047.47    81.950838     83.10932     83.10932 
10950000    560.16622   -157419.37   -155102.42    477.66122    566047.47    81.912334    83.128851    83.128851 
10980000    559.59839   -157416.78   -155102.17    707.01655    566047.47    81.877023    83.146774    83.146774 
11010000    561.71454   -157414.83   -155091.47    623.17506    566047.47    81.845044    83.163016    83.163016 
11040000    559.22332    -157406.7   -155093.64    662.28817    566047.47    81.816524     83.17751     83.17751 
11070000    559.56702   -157407.87   -155093.39    613.47354    566047.47    81.791574    83.190195    83.190195 
11100000    560.67332   -157387.83   -155068.78    719.83044    566047.47    81.770294    83.201019    83.201019 
11130000    558.33197   -157406.59   -155097.22    646.11588    566047.47    81.752768    83.209937    83.209937 
11160000    560.18188   -157395.62   -155078.59    695.38648    566047.47    81.739064    83.216912    83.216912 
11190000    557.52163    -157402.3   -155096.28    619.30927    566047.47    81.729236    83.221915    83.221915 
11220000    560.47412   -157403.77   -155085.54    579.84167    566047.47    81.723324    83.224925    83.224925 
11250000     557.3093   -157382.73   -155077.59    725.91207    566047.47    81.721351     83.22593     83.22593 
11280000    567.06214   -157415.17   -155069.69    534.87128    566047.47    81.723324    83.224925    83.224925 
11310000    561.53835   -157413.74   -155091.11    566.17655    566047.47    81.729236    83.221915    83.221915 
11340000    558.96442   -157406.46   -155094.48    605.45581    566047.47    81.739064    83.216912    83.216912 
11370000    561.24458   -157394.35   -155072.93    700.68133    566047.47    81.752768    83.209937    83.209937 
11400000    556.51629   -157390.28   -155088.42    683.53186    566047.47    81.770294    83.201019    83.201019 
11430000    561.91827   -157413.68   -155089.47    572.29836    566047.47    81.791574    83.190195    83.190195 
11460000    557.57973   -157414.81   -155108.55    582.80139    566047.47    81.816524     83.17751     83.17751 
11490000     558.9182   -157421.33   -155109.53     585.0023    566047.47    81.845044    83.163016    83.163016 
11520000    564.14552   -157374.68   -155041.26    775.62989    566047.47    81.877023    83.146774    83.146774 
11550000    560.10699   -157390.36   -155073.64    858.42715    566047.47    81.912334    83.128851    83.128851 
11580000    559.50913    -157403.3   -155089.06    639.20004    566047.47    81.950838     83.10932     83.10932 
11610000    558.47131   -157423.26   -155113.32    555.14286    566047.47    81.992382    83.088262    83.088262 
11640000    561.06324    -157410.2   -155089.54    625.46156    566047.47    82.036804    83.065763    83.065763 
11670000     560.6858   -157394.46   -155075.36    701.71496    566047.47    82.083927    83.041917    83.041917 
11700000    556.13056   -157404.86    -155104.6    617.00052    566047.47    82.133566    83.016819    83.016819 
11730000     559.8512   -157408.64   -155092.98     657.2437    566047.47    82.185524    82.990573    82.990573 
11760000    556.77481   -157413.97   -155111.04    642.71212    566047.47    82.239597    82.963285    82.963285 
11790000    559.79143   -157406.41      -155091    631.85347    566047.47    82.295572    82.935066    82.935066 
11820000    557.19331   -157427.39   -155122.73    517.00699    566047.47    82.353226     82.90603     82.90603 
11850000    561.59213   -157402.16   -155079.31     763.5035    566047.47    82.412334    82.876294    82.876294 
11880000    560.93336   -157436.38   -155116.25    424.30838    566047.47    82.472661    82.845977    82.845977 
11910000    559.49806   -157407.89   -155093.69    720.05178    566047.47     82.53397    82.815201    82.815201 
11940000      556.403   -157415.61   -155114.22    530.10333    566047.47    82.596018    82.784089    82.784089 
11970000    562.59242   -157405.42   -155078.43    687.28471    566047.47     82.65856    82.752764    82.752764 
12000000    557.01812    -157445.6   -155141.66    322.37233    566047.47    82.721351    82.721351    82.721351 
12030000     560.8152   -157433.49   -155113.85    413.79809    566047.47    82.784141    82.689973    82.689973 
12060000     564.6719   -157402.17   -155066.58    710.52704    566047.47    82.846684    82.658755    82.658755 
12090000    560.98453   -157417.99   -155097.65    506.19762    566047.47    82.908732    82.627819    82.627819 
12120000    559.18924    -157426.7   -155113.79    507.10754    566047.47    82.970041    82.597286    82.597286 
12150000    557.85729   -157402.13   -155094.72    566.90602    566047.47    83.030368    82.567274    82.567274 
12180000     559.4832   -157414.96   -155100.83    468.27677    566047.47    83.089475    82.537901    82.537901 
12210000    559.33598   -157419.94   -155106.42    502.90907    566047.47     83.14713    82.509279    82.509279 
12240000     561.4614   -157419.67   -155097.36     505.9151    566047.47    83.203104    82.481521    82.481521 
12270000     557.0294   -157413.44   -155109.46    502.13551    566047.47    83.257178    82.454732    82.454732 
12300000    562.23722   -157406.17   -155080.65    801.89314    566047.47    83.309136    82.429015    82.429015 
12330000    558.21241   -157428.23   -155119.35    537.86536    566047.47    83.358775    82.404469    82.404469 
12360000    564.41557   -157384.05   -155049.52      1033.06    566047.47    83.405898    82.381187    82.381187 
12390000    556.59476    -157417.6   -155115.41    479.42504    566047.47    83.450319    82.359258    82.359258 
12420000     560.8173   -157413.28   -155093.63    526.69155    566047.47    83.491864    82.338765    82.338765 
12450000    563.28493   -157406.14   -155076.28     610.0263    566047.47    83.530368    82.319785    82.319785 
12480000    558.05531    -157402.4   -155094.17    670.70729    566047.47    83.565679    82.302391    82.302391 
12510000    562.93673   -157427.18   -155098.77    618.67806    566047.47    83.597657    82.286648    82.286648 
12540000     556.9059   -157406.43   -155102.96    630.33615    566047.47    83.626178    82.272615    82.272615 
12570000    562.71212   -157388.44   -155060.96    631.95344    566047.47    83.651127    82.260345    82.260345 
12600000    559.66411   -157389.05   -155074.17    770.14437    566047.47    83.672407    82.249884    82.249884 
12630000    562.37164   -157402.75   -155076.68    601.49823    566047.47    83.689934    82.241271    82.241271 
12660000    553.26213   -157406.24   -155117.84    526.40309    566047.47    83.703638    82.234538    82.234538 
12690000    563.22768   -157422.75   -155093.13    477.05351    566047.47    83.713466    82.229711    82.229711 
12720000    559.71556   -157421.42   -155106.33    533.38186    566047.47    83.719378    82.226808    82.226808 
12750000    559.57244   -157408.06   -155093.55     674.9152    566047.47    83.721351    82.225839    82.225839 
12780000    559.28706   -157388.14   -155074.82    747.69524    566047.47    83.719378    82.226808    82.226808 
12810000    555.99026   -157405.22   -155105.53     618.3668    566047.47    83.713466    82.229711    82.229711 
12840000    561.35704   -157409.57   -155087.69    498.55116    566047.47    83.703638    82.234538    82.234538 
12870000    562.01968   -157408.53   -155083.91    585.77626    566047.47    83.689934    82.241271    82.241271 
12900000    561.19211   -157398.85   -155077.65    761.06688    566047.47    83.672407    82.249884    82.249884 
12930000     555.4438   -157407.41   -155109.99     639.9089    566047.47    83.651127    82.260345    82.260345 
12960000    561.21717    -157400.3   -155078.99    677.79611    566047.47    83.626178    82.272615    82.272615 
12990000    558.93122   -157394.56   -155082.71    687.71166    566047.47    83.597657    82.286648    82.286648 
13020000    558.10809    -157415.6   -155107.15    543.56416    566047.47    83.565679    82.302391    82.302391 
13050000    559.96554    -157394.5   -155078.37    754.06081    566047.47    83.530368    82.319785    82.319785 
13080000    554.42587   -157389.98   -155096.77    637.31787    566047.47    83.491864    82.338765    82.338765 
13110000    561.64717   -157409.79   -155086.71    607.33063    566047.47    83.450319    82.359258    82.359258 
13140000    560.55298   -157392.77   -155074.21    636.94922    566047.47    83.405898    82.381187    82.381187 
13170000    558.03618   -157403.05   -155094.91     618.1144    566047.47    83.358775    82.404469    82.404469 
13200000     559.6736   -157403.03   -155088.11    658.51561    566047.47    83.309136    82.429015    82.429015 
13230000    557.93694   -157414.03    -155106.3    547.44169    566047.47    83.257178    82.454732    82.454732 
13260000    557.78269   -157421.48   -155114.38    602.71559    566047.47    83.203104    82.481521    82.481521 
13290000    557.09695   -157393.88   -155089.62    768.29313    566047.47     83.14713    82.509279    82.509279 
13320000    562.78384   -157407.61   -155079.82     598.9449    566047.47    83.089475    82.537901    82.537901 
13350000    557.76751   -157398.02   -155090.99    786.38834    566047.47    83.030368    82.567274    82.567274 
13380000    558.42627   -157408.72   -155098.96    575.68165    566047.47    82.970041    82.597286    82.597286 
13410000    557.29506   -157410.05   -155104.97      570.492    566047.47    82.908732    82.627819    82.627819 
13440000    562.37538   -157421.98   -155095.89    510.23085    566047.47    82.846684    82.658755    82.658755 
13470000    559.09082   -157426.43   -155113.92    571.48738    566047.47    82.784141    82.689973    82.689973 
13500000    564.61524   -157438.04   -155102.68    339.47002    566047.47    82.721351    82.721351    82.721351 
13530000    561.34283   -157416.51   -155094.69    577.09745    566047.47     82.65856    82.752764    82.752764 
13560000    554.11803   -157428.38   -155136.44    404.95821    566047.47    82.596018    82.784089    82.784089 
13590000    556.07341   -157430.01   -155129.98    555.02844    566047.47     82.53397    82.815201    82.815201 
13620000    561.42344   -157411.83   -155089.67    546.94007    566047.47    82.472661    82.845977    82.845977 
13650000    560.87778   -157404.79   -155084.89    701.13256    566047.47    82.412334    82.876294    82.876294 
13680000     555.9241   -157407.34   -155107.93    727.22241    566047.47    82.353226     82.90603     82.90603 
13710000    559.58345   -157395.27   -155080.72    780.94154    566047.47    82.295572    82.935066    82.935066 
13740000    558.13159   -157390.36   -155081.82    740.89257    566047.47    82.239597    82.963285    82.963285 
13770000    554.88229   -157422.74   -155127.64    369.91881    566047.47    82.185524    82.990573    82.990573 
