units           metal
boundary        p p p
atom_style      atomic
read_data      ../../restart/T${T}.dat
read_data      ../../restart/T540.dat
Reading data file ...
  orthogonal box = (-2.4321879 -2.4321879 -2.4321879) to (80.266965 80.266965 80.266965)
  1 by 1 by 2 MPI processor grid
  reading atoms ...
  32000 atoms
  reading velocities ...
  32000 velocities
  read_data CPU = 0.149 seconds
pair_style      eam/alloy
pair_coeff      * *  ../../ZrCu.lammps.eam Zr Cu
mass 1 91.224
mass 2 63.546
neighbor            2.0 bin
neigh_modify     delay 1
timestep 0.01
thermo 30000
reset_timestep 0
thermo_style custom step temp pe etotal press vol lx ly lz
fix             1 all nvt temp ${T} ${T} 0.1
fix             1 all nvt temp 540 ${T} 0.1
fix             1 all nvt temp 540 540 0.1
thermo_modify flush yes
fix nodrift all momentum 1  linear 1 1 1
fix com_seed all recenter INIT INIT INIT shift all
fix dsf all deform 1 x  wiggle 1.0  30000.0 y volume z volume units box
fix ps1 all ave/time 1 1 30000 c_thermo_press[1] c_thermo_press[2]  c_thermo_press[3] c_thermo_press[4]  c_thermo_press[5] c_thermo_press[6]  file  stress.${T}
fix ps1 all ave/time 1 1 30000 c_thermo_press[1] c_thermo_press[2]  c_thermo_press[3] c_thermo_press[4]  c_thermo_press[5] c_thermo_press[6]  file  stress.540
dump            1 all custom 3000000 dump.${T} id type x y z
dump            1 all custom 3000000 dump.540 id type x y z
dump_modify 1 sort id
run 30000000
Per MPI rank memory allocation (min/avg/max) = 9.345 | 10.60 | 11.85 Mbytes
Step Temp PotEng TotEng Press Volume Lx Ly Lz 
       0    539.10616   -157563.55    -155333.7    213.92821    565591.91    82.699153    82.699153    82.699153 
   30000    541.79882      -157527   -155286.01    455.96831    565591.91    82.761944    82.667776    82.667776 
   60000    540.99446   -157513.59   -155275.93    706.66873    565591.91    82.824487    82.636558    82.636558 
   90000    544.77601   -157507.08   -155253.78    587.39724    565591.91    82.886535    82.605622    82.605622 
  120000    543.54165   -157502.36   -155254.16    787.13413    565591.91    82.947843    82.575088    82.575088 
  150000    540.78778   -157526.47   -155289.67    497.99199    565591.91     83.00817    82.545076    82.545076 
  180000    539.66881   -157514.19   -155282.01    542.02349    565591.91    83.067278    82.515703    82.515703 
  210000    540.81715   -157517.82   -155280.89    609.18766    565591.91    83.124933    82.487082    82.487082 
  240000    539.42496   -157499.42   -155268.25     857.9411    565591.91    83.180907    82.459324    82.459324 
  270000    540.01965   -157512.83    -155279.2    547.67441    565591.91     83.23498    82.432535    82.432535 
  300000    540.66188   -157502.93   -155266.64    773.03058    565591.91    83.286939    82.406818    82.406818 
  330000    540.19823   -157509.73   -155275.36    663.30308    565591.91    83.336577    82.382272    82.382272 
  360000    541.98354   -157525.72   -155283.97    526.84089    565591.91      83.3837     82.35899     82.35899 
  390000     536.7015   -157502.44   -155282.53    717.31317    565591.91    83.428122    82.337061    82.337061 
  420000    541.07582   -157517.68   -155279.68    591.27333    565591.91    83.469667    82.316568    82.316568 
  450000    542.92696   -157507.63   -155261.98    590.29453    565591.91     83.50817    82.297589    82.297589 
  480000     538.1765   -157509.91    -155283.9    721.30119    565591.91    83.543481    82.280195    82.280195 
  510000    543.93973   -157515.08   -155265.24    715.56227    565591.91     83.57546    82.264452    82.264452 
  540000    541.27027   -157494.74   -155255.94     656.2877    565591.91     83.60398    82.250419    82.250419 
  570000    541.85413    -157506.7   -155265.49    559.05186    565591.91     83.62893    82.238149    82.238149 
  600000    546.22756    -157505.5    -155246.2    570.02172    565591.91     83.65021    82.227688    82.227688 
  630000    542.69264   -157504.37   -155259.69    682.67793    565591.91    83.667736    82.219075    82.219075 
  660000    541.95281   -157514.29   -155272.67    668.19671    565591.91    83.681441    82.212342    82.212342 
  690000    540.27572   -157487.65   -155252.96    815.68044    565591.91    83.691268    82.207515    82.207515 
  720000    541.18557    -157500.1   -155261.65    745.75083    565591.91     83.69718    82.204612    82.204612 
  750000      539.189   -157489.19      -155259    735.85262    565591.91    83.699153    82.203643    82.203643 
  780000    542.89824   -157505.51   -155259.98    668.65175    565591.91     83.69718    82.204612    82.204612 
  810000    538.07967   -157512.58   -155286.98    501.23172    565591.91    83.691268    82.207515    82.207515 
  840000    540.21324   -157500.27   -155265.84    592.46839    565591.91    83.681441    82.212342    82.212342 
  870000    539.84678   -157481.86   -155248.95    886.68153    565591.91    83.667736    82.219075    82.219075 
  900000    536.42865   -157487.03   -155268.25    765.11761    565591.91     83.65021    82.227688    82.227688 
  930000    539.17352   -157520.08   -155289.95    535.28845    565591.91     83.62893    82.238149    82.238149 
  960000    540.28595   -157500.06   -155265.33    705.30566    565591.91     83.60398    82.250419    82.250419 
  990000    538.56722   -157479.69   -155252.07    783.71101    565591.91     83.57546    82.264452    82.264452 
 1020000    533.65811   -157500.07   -155292.75    660.92689    565591.91    83.543481    82.280195    82.280195 
 1050000    542.05645   -157511.92   -155269.87    630.86665    565591.91     83.50817    82.297589    82.297589 
 1080000    537.79087   -157486.72   -155262.31    822.70607    565591.91    83.469667    82.316568    82.316568 
 1110000    539.50473   -157511.71   -155280.21    701.87487    565591.91    83.428122    82.337061    82.337061 
 1140000    543.39986   -157508.29   -155260.68    649.82459    565591.91      83.3837     82.35899     82.35899 
 1170000    541.93789   -157510.36    -155268.8    606.19831    565591.91    83.336577    82.382272    82.382272 
 1200000    538.94654   -157508.71   -155279.52    599.54283    565591.91    83.286939    82.406818    82.406818 
 1230000    542.38411    -157502.8   -155259.39    707.94032    565591.91     83.23498    82.432535    82.432535 
 1260000    540.34394   -157511.72   -155276.75    626.03057    565591.91    83.180907    82.459324    82.459324 
 1290000     536.3575   -157502.57   -155284.09    693.94314    565591.91    83.124933    82.487082    82.487082 
 1320000    537.56915   -157515.08   -155291.59    455.40922    565591.91    83.067278    82.515703    82.515703 
 1350000    539.99624   -157507.86   -155274.33    689.46019    565591.91     83.00817    82.545076    82.545076 
 1380000    538.81662   -157515.67   -155287.02    644.60478    565591.91    82.947843    82.575088    82.575088 
 1410000    536.89177   -157516.38    -155295.7    593.76759    565591.91    82.886535    82.605622    82.605622 
 1440000    540.92494   -157509.38   -155272.01    611.80713    565591.91    82.824487    82.636558    82.636558 
 1470000    540.31019   -157535.94   -155301.11    423.29766    565591.91    82.761944    82.667776    82.667776 
 1500000    543.17626   -157516.66   -155269.98     704.6188    565591.91    82.699153    82.699153    82.699153 
 1530000    536.67251   -157513.44   -155293.65     492.3538    565591.91    82.636363    82.730566    82.730566 
 1560000    540.55914   -157506.91   -155271.05    853.73422    565591.91     82.57382    82.761891    82.761891 
 1590000    542.24835   -157509.39   -155266.54    588.82273    565591.91    82.511772    82.793003    82.793003 
 1620000    538.64839   -157507.75    -155279.8    566.37566    565591.91    82.450463    82.823779    82.823779 
 1650000    538.35461   -157502.34    -155275.6    797.99206    565591.91    82.390136    82.854096    82.854096 
 1680000    538.82959   -157512.14   -155283.43    603.89397    565591.91    82.331029    82.883832    82.883832 
 1710000    541.98912   -157513.66   -155271.89    613.61487    565591.91    82.273374    82.912869    82.912869 
 1740000     544.7671    -157491.4   -155238.14    845.47607    565591.91      82.2174    82.941088    82.941088 
 1770000    539.48396   -157505.92   -155274.51    577.83115    565591.91    82.163326    82.968376    82.968376 
 1800000    538.65022   -157499.13   -155271.16    750.25166    565591.91    82.111368    82.994622    82.994622 
 1830000    542.36639   -157507.85   -155264.52    500.52425    565591.91    82.061729     83.01972     83.01972 
 1860000    542.83728    -157508.4   -155263.12    527.61267    565591.91    82.014606    83.043566    83.043566 
 1890000    542.09168   -157521.59   -155279.39    540.25191    565591.91    81.970185    83.066065    83.066065 
 1920000    538.83461   -157510.06   -155281.34    595.37339    565591.91     81.92864    83.087123    83.087123 
 1950000    538.85969   -157508.52    -155279.7    471.98457    565591.91    81.890136    83.106654    83.106654 
 1980000    539.75238   -157504.41   -155271.89    535.89627    565591.91    81.854825    83.124578    83.124578 
 2010000    538.90613   -157484.26   -155255.24    825.75006    565591.91    81.822847     83.14082     83.14082 
 2040000    540.49287   -157495.49   -155259.91    709.64815    565591.91    81.794326    83.155313    83.155313 
 2070000    536.92187   -157505.09   -155284.27    498.77055    565591.91    81.769377    83.167999    83.167999 
 2100000    536.83721    -157484.7   -155264.24    734.04762    565591.91    81.748097    83.178823    83.178823 
 2130000    539.50362   -157483.49      -155252    789.29512    565591.91     81.73057    83.187741    83.187741 
 2160000    539.38622    -157488.7   -155257.69    673.95297    565591.91    81.716866    83.194716    83.194716 
 2190000    539.57072   -157482.71   -155250.94    759.59693    565591.91    81.707039    83.199719    83.199719 
 2220000    535.39757   -157480.83   -155266.32    809.36178    565591.91    81.701127    83.202729    83.202729 
 2250000    538.25583   -157500.77   -155274.44     641.5852    565591.91    81.699153    83.203734    83.203734 
 2280000    539.88391   -157514.35   -155281.28    596.09177    565591.91    81.701127    83.202729    83.202729 
 2310000     539.8262   -157488.38   -155255.56    736.34601    565591.91    81.707039    83.199719    83.199719 
 2340000    540.64122   -157477.97   -155241.77    906.87963    565591.91    81.716866    83.194716    83.194716 
 2370000    540.30305    -157482.3    -155247.5    801.86985    565591.91     81.73057    83.187741    83.187741 
 2400000    540.85608   -157502.57   -155265.49    586.23298    565591.91    81.748097    83.178823    83.178823 
 2430000    538.67202   -157500.59   -155272.54    646.78421    565591.91    81.769377    83.167999    83.167999 
 2460000     541.4738   -157487.27   -155247.63    864.37543    565591.91    81.794326    83.155313    83.155313 
 2490000     540.0296   -157509.84   -155276.17    407.12562    565591.91    81.822847     83.14082     83.14082 
 2520000     538.1271   -157502.28   -155276.48    756.81199    565591.91    81.854825    83.124578    83.124578 
 2550000    536.69844   -157511.23   -155291.34    483.50614    565591.91    81.890136    83.106654    83.106654 
 2580000    540.80649   -157509.54   -155272.66    553.95356    565591.91     81.92864    83.087123    83.087123 
 2610000    536.50709   -157527.24   -155308.14    512.98783    565591.91    81.970185    83.066065    83.066065 
 2640000    536.08041   -157481.88   -155264.55    757.73458    565591.91    82.014606    83.043566    83.043566 
 2670000    542.22349   -157493.05    -155250.3    774.74121    565591.91    82.061729     83.01972     83.01972 
 2700000    536.91984   -157530.03   -155309.23    503.75301    565591.91    82.111368    82.994622    82.994622 
 2730000    539.68676    -157490.6   -155258.35    728.65183    565591.91    82.163326    82.968376    82.968376 
 2760000    542.18981   -157514.75   -155272.15    625.61418    565591.91      82.2174    82.941088    82.941088 
 2790000    539.30829   -157492.89    -155262.2    669.98004    565591.91    82.273374    82.912869    82.912869 
 2820000    543.52416   -157503.01   -155254.89    688.65299    565591.91    82.331029    82.883832    82.883832 
 2850000    539.54996   -157511.04   -155279.36    565.20033    565591.91    82.390136    82.854096    82.854096 
 2880000    537.31027   -157524.75   -155302.33    626.09595    565591.91    82.450463    82.823779    82.823779 
 2910000    542.75833   -157521.74   -155276.78    419.19997    565591.91    82.511772    82.793003    82.793003 
 2940000    542.07047   -157506.52   -155264.41    524.71716    565591.91     82.57382    82.761891    82.761891 
 2970000    541.36434   -157512.88   -155273.69    576.38169    565591.91    82.636363    82.730566    82.730566 
 3000000    540.71848   -157536.26   -155299.74    264.42375    565591.91    82.699153    82.699153    82.699153 
 3030000    538.47396   -157503.73    -155276.5    689.86631    565591.91    82.761944    82.667776    82.667776 
 3060000    540.71753   -157501.26   -155264.74    848.09094    565591.91    82.824487    82.636558    82.636558 
 3090000    534.69853   -157524.23   -155312.62    351.56169    565591.91    82.886535    82.605622    82.605622 
 3120000    540.44185   -157498.61   -155263.23    710.38896    565591.91    82.947843    82.575088    82.575088 
 3150000    540.08404   -157497.73   -155263.83    593.52085    565591.91     83.00817    82.545076    82.545076 
 3180000    544.08756   -157509.31   -155258.86     695.5281    565591.91    83.067278    82.515703    82.515703 
 3210000    543.66634   -157512.64   -155263.93    506.49779    565591.91    83.124933    82.487082    82.487082 
 3240000    542.57396    -157529.4   -155285.21    530.26361    565591.91    83.180907    82.459324    82.459324 
 3270000    539.03585   -157504.66    -155275.1    679.21668    565591.91     83.23498    82.432535    82.432535 
 3300000    539.45374    -157501.4   -155270.11    569.18202    565591.91    83.286939    82.406818    82.406818 
 3330000    538.24491   -157529.65   -155303.37    326.56424    565591.91    83.336577    82.382272    82.382272 
 3360000    537.41864   -157504.03   -155281.17    458.75748    565591.91      83.3837     82.35899     82.35899 
 3390000    538.66182   -157512.38   -155284.37    463.25765    565591.91    83.428122    82.337061    82.337061 
 3420000    537.73886   -157489.68   -155265.49     784.7284    565591.91    83.469667    82.316568    82.316568 
 3450000    543.99364   -157495.49   -155245.43    835.46742    565591.91     83.50817    82.297589    82.297589 
 3480000    543.17098   -157513.93   -155267.27    561.06119    565591.91    83.543481    82.280195    82.280195 
 3510000    536.54457   -157497.58   -155278.32    667.15255    565591.91     83.57546    82.264452    82.264452 
 3540000    539.40109   -157506.41   -155275.34    642.26105    565591.91     83.60398    82.250419    82.250419 
 3570000    540.33795   -157508.36   -155273.42    621.78364    565591.91     83.62893    82.238149    82.238149 
 3600000    535.40967    -157501.9   -155287.34    585.74922    565591.91     83.65021    82.227688    82.227688 
 3630000    541.38821   -157498.49   -155259.21    884.76717    565591.91    83.667736    82.219075    82.219075 
 3660000    534.89684   -157485.68   -155273.24    786.83144    565591.91    83.681441    82.212342    82.212342 
 3690000    541.55915   -157513.16   -155273.16     567.4786    565591.91    83.691268    82.207515    82.207515 
 3720000    540.35398   -157477.84   -155242.83    742.42543    565591.91     83.69718    82.204612    82.204612 
 3750000    540.77435   -157493.61   -155256.86    578.09201    565591.91    83.699153    82.203643    82.203643 
 3780000    534.84715   -157497.42   -155285.18     701.7298    565591.91     83.69718    82.204612    82.204612 
 3810000    536.97235   -157480.02      -155259    864.17187    565591.91    83.691268    82.207515    82.207515 
 3840000    540.37848    -157473.8   -155238.69    1020.9806    565591.91    83.681441    82.212342    82.212342 
 3870000    542.87928   -157505.52   -155260.06    645.57206    565591.91    83.667736    82.219075    82.219075 
 3900000    541.43526   -157517.46   -155277.98    555.08448    565591.91     83.65021    82.227688    82.227688 
 3930000    538.06814   -157494.76    -155269.2    670.31399    565591.91     83.62893    82.238149    82.238149 
 3960000    543.39907   -157500.14   -155252.54    680.19938    565591.91     83.60398    82.250419    82.250419 
 3990000     539.8651   -157510.71   -155277.72    631.01794    565591.91     83.57546    82.264452    82.264452 
 4020000    540.21993   -157494.94   -155260.49    798.45345    565591.91    83.543481    82.280195    82.280195 
 4050000    541.14763   -157502.01   -155263.72    713.77959    565591.91     83.50817    82.297589    82.297589 
 4080000    538.49954   -157513.28   -155285.94    505.65116    565591.91    83.469667    82.316568    82.316568 
 4110000      540.809   -157486.25   -155249.36    632.74456    565591.91    83.428122    82.337061    82.337061 
 4140000    541.23401   -157506.35    -155267.7    785.05901    565591.91      83.3837     82.35899     82.35899 
 4170000    538.62121   -157509.09   -155281.25    521.34736    565591.91    83.336577    82.382272    82.382272 
 4200000    542.31302   -157507.21    -155264.1    601.95752    565591.91    83.286939    82.406818    82.406818 
 4230000    537.17004   -157488.87   -155267.03    717.43102    565591.91     83.23498    82.432535    82.432535 
 4260000    537.96432   -157495.74   -155270.62    614.54375    565591.91    83.180907    82.459324    82.459324 
 4290000    541.01642   -157521.78   -155284.03     595.4324    565591.91    83.124933    82.487082    82.487082 
 4320000    541.95143   -157516.95   -155275.33    540.21531    565591.91    83.067278    82.515703    82.515703 
 4350000    538.56014   -157508.45   -155280.86    572.90384    565591.91     83.00817    82.545076    82.545076 
 4380000    537.20239   -157520.75   -155298.77    627.56938    565591.91    82.947843    82.575088    82.575088 
 4410000    540.73479   -157519.78    -155283.2    573.28503    565591.91    82.886535    82.605622    82.605622 
 4440000    539.77004   -157518.03   -155285.44    621.96695    565591.91    82.824487    82.636558    82.636558 
 4470000    543.70417   -157532.06    -155283.2    498.27317    565591.91    82.761944    82.667776    82.667776 
 4500000    539.68197    -157519.8   -155287.57    605.74599    565591.91    82.699153    82.699153    82.699153 
 4530000    538.74854   -157519.17    -155290.8    533.55106    565591.91    82.636363    82.730566    82.730566 
 4560000     544.1017   -157515.06   -155264.55    519.31816    565591.91     82.57382    82.761891    82.761891 
 4590000    541.23405   -157511.08   -155272.43    725.55953    565591.91    82.511772    82.793003    82.793003 
 4620000    536.50201   -157516.72   -155297.64    648.47278    565591.91    82.450463    82.823779    82.823779 
 4650000     543.3023   -157512.69   -155265.49    621.01224    565591.91    82.390136    82.854096    82.854096 
 4680000    544.58525   -157512.15   -155259.64    676.66721    565591.91    82.331029    82.883832    82.883832 
 4710000     540.5684   -157507.48   -155271.58    756.79278    565591.91    82.273374    82.912869    82.912869 
 4740000    540.92321   -157510.31   -155272.94    635.65485    565591.91      82.2174    82.941088    82.941088 
 4770000    542.02169      -157519   -155277.09    593.61929    565591.91    82.163326    82.968376    82.968376 
 4800000    537.68264   -157496.79   -155272.83    635.37886    565591.91    82.111368    82.994622    82.994622 
 4830000    541.44058    -157515.7    -155276.2    575.59093    565591.91    82.061729     83.01972     83.01972 
 4860000    542.82703   -157513.07   -155267.83    550.00287    565591.91    82.014606    83.043566    83.043566 
 4890000    538.90326   -157510.04   -155281.03    595.46534    565591.91    81.970185    83.066065    83.066065 
 4920000    540.42047   -157510.82   -155275.53    642.68766    565591.91     81.92864    83.087123    83.087123 
 4950000    536.02792   -157479.08   -155261.96    823.27763    565591.91    81.890136    83.106654    83.106654 
 4980000    543.82757   -157506.56   -155257.18    770.24499    565591.91    81.854825    83.124578    83.124578 
 5010000    540.77577   -157511.58   -155274.83    764.19455    565591.91    81.822847     83.14082     83.14082 
 5040000    539.42869   -157501.93   -155270.75    521.83779    565591.91    81.794326    83.155313    83.155313 
 5070000    540.99463    -157500.2   -155262.54    636.50684    565591.91    81.769377    83.167999    83.167999 
 5100000     542.3558    -157512.2   -155268.91    559.82013    565591.91    81.748097    83.178823    83.178823 
 5130000    540.35769   -157494.12    -155259.1    708.69941    565591.91     81.73057    83.187741    83.187741 
 5160000    539.80545   -157501.12   -155268.38    583.64436    565591.91    81.716866    83.194716    83.194716 
 5190000    543.20143   -157484.92   -155238.13    692.14878    565591.91    81.707039    83.199719    83.199719 
 5220000    536.52044   -157510.02   -155290.87    645.61779    565591.91    81.701127    83.202729    83.202729 
 5250000     538.9799   -157501.07   -155271.75    722.48181    565591.91    81.699153    83.203734    83.203734 
 5280000    540.14052   -157489.64   -155255.51    708.23052    565591.91    81.701127    83.202729    83.202729 
 5310000    537.88843   -157497.19   -155272.37    901.91285    565591.91    81.707039    83.199719    83.199719 
 5340000    541.21143   -157495.42   -155256.87     760.1824    565591.91    81.716866    83.194716    83.194716 
 5370000    539.35508   -157502.39   -155271.52     797.7715    565591.91     81.73057    83.187741    83.187741 
 5400000    539.58035   -157494.38   -155262.57    756.12443    565591.91    81.748097    83.178823    83.178823 
 5430000     541.4472   -157495.57   -155256.04    717.01883    565591.91    81.769377    83.167999    83.167999 
 5460000    541.47075   -157503.99   -155264.36    594.56448    565591.91    81.794326    83.155313    83.155313 
 5490000     538.4534   -157487.39   -155260.24    813.21376    565591.91    81.822847     83.14082     83.14082 
 5520000    539.52469   -157498.14   -155266.56    648.52743    565591.91    81.854825    83.124578    83.124578 
 5550000    540.70698   -157506.48   -155270.01    620.19658    565591.91    81.890136    83.106654    83.106654 
 5580000    537.00178   -157508.01   -155286.87    599.19981    565591.91     81.92864    83.087123    83.087123 
 5610000    538.75405   -157505.15   -155276.76     731.7596    565591.91    81.970185    83.066065    83.066065 
 5640000    540.53294   -157498.42   -155262.67    595.72955    565591.91    82.014606    83.043566    83.043566 
 5670000    537.58833   -157493.93   -155270.36    732.72938    565591.91    82.061729     83.01972     83.01972 
 5700000    542.28804    -157519.5    -155276.5    594.39711    565591.91    82.111368    82.994622    82.994622 
 5730000    542.95298   -157523.67   -155277.91    598.21807    565591.91    82.163326    82.968376    82.968376 
 5760000    541.67736   -157492.64   -155252.16    719.16957    565591.91      82.2174    82.941088    82.941088 
 5790000    537.37594   -157501.64   -155278.95    718.67561    565591.91    82.273374    82.912869    82.912869 
 5820000    536.10844   -157499.82   -155282.37    754.16003    565591.91    82.331029    82.883832    82.883832 
 5850000    541.23082    -157509.7   -155271.06    618.88937    565591.91    82.390136    82.854096    82.854096 
 5880000    537.97945    -157523.7   -155298.51    603.44698    565591.91    82.450463    82.823779    82.823779 
 5910000      537.135   -157521.22   -155299.53    593.93575    565591.91    82.511772    82.793003    82.793003 
 5940000    539.08439   -157523.42   -155293.66    569.15298    565591.91     82.57382    82.761891    82.761891 
 5970000    536.14685    -157510.3   -155292.69    496.95385    565591.91    82.636363    82.730566    82.730566 
 6000000    538.82174   -157496.64   -155267.97    663.65491    565591.91    82.699153    82.699153    82.699153 
 6030000    544.59607   -157528.26    -155275.7    549.58387    565591.91    82.761944    82.667776    82.667776 
 6060000    546.15345   -157495.56   -155236.57    886.91707    565591.91    82.824487    82.636558    82.636558 
 6090000    543.21775   -157521.31   -155274.45     701.3208    565591.91    82.886535    82.605622    82.605622 
 6120000    536.66218    -157517.3   -155297.56    486.90708    565591.91    82.947843    82.575088    82.575088 
 6150000     538.5722   -157524.94    -155297.3    543.89305    565591.91     83.00817    82.545076    82.545076 
 6180000    534.45939   -157505.41   -155294.78    583.19276    565591.91    83.067278    82.515703    82.515703 
 6210000    536.22845   -157520.47   -155302.52     592.1459    565591.91    83.124933    82.487082    82.487082 
 6240000    539.28913   -157530.04   -155299.43    458.17828    565591.91    83.180907    82.459324    82.459324 
 6270000    544.07081   -157508.56   -155258.18    515.14317    565591.91     83.23498    82.432535    82.432535 
 6300000    535.56032   -157507.91   -155292.73    644.50649    565591.91    83.286939    82.406818    82.406818 
 6330000    537.77241   -157508.39   -155284.06    618.60805    565591.91    83.336577    82.382272    82.382272 
 6360000    541.06861   -157486.12   -155248.15    845.90305    565591.91      83.3837     82.35899     82.35899 
 6390000    538.72679   -157512.74   -155284.46    683.69982    565591.91    83.428122    82.337061    82.337061 
 6420000    544.03223   -157518.37   -155268.14    590.67793    565591.91    83.469667    82.316568    82.316568 
 6450000    537.19017   -157511.04   -155289.11    496.54711    565591.91     83.50817    82.297589    82.297589 
 6480000    541.80011   -157490.86   -155249.87    717.37524    565591.91    83.543481    82.280195    82.280195 
 6510000    539.87708   -157501.18   -155268.14    672.89462    565591.91     83.57546    82.264452    82.264452 
 6540000    547.35345   -157485.17   -155221.21    857.19462    565591.91     83.60398    82.250419    82.250419 
 6570000    541.82615   -157502.92   -155261.82    659.57585    565591.91     83.62893    82.238149    82.238149 
 6600000    537.53821   -157504.14   -155280.77    616.16827    565591.91     83.65021    82.227688    82.227688 
 6630000    539.07293   -157514.08   -155284.36    526.69321    565591.91    83.667736    82.219075    82.219075 
 6660000    536.35828   -157496.59    -155278.1    706.61631    565591.91    83.681441    82.212342    82.212342 
 6690000    537.76956   -157507.19   -155282.87     728.2088    565591.91    83.691268    82.207515    82.207515 
 6720000    541.08029   -157498.47   -155260.45    678.57693    565591.91     83.69718    82.204612    82.204612 
 6750000    541.03544   -157497.48   -155259.65    698.05872    565591.91    83.699153    82.203643    82.203643 
 6780000    533.53168   -157502.97   -155296.17    551.44267    565591.91     83.69718    82.204612    82.204612 
 6810000    539.44435   -157494.89   -155263.64    824.83623    565591.91    83.691268    82.207515    82.207515 
 6840000    542.34154   -157506.47   -155263.24    688.25055    565591.91    83.681441    82.212342    82.212342 
 6870000    542.52069   -157485.61   -155241.64     748.0625    565591.91    83.667736    82.219075    82.219075 
 6900000    540.24096   -157488.95   -155254.41    728.41643    565591.91     83.65021    82.227688    82.227688 
 6930000    533.73893   -157515.02   -155307.37    486.29571    565591.91     83.62893    82.238149    82.238149 
 6960000    537.06386   -157497.56   -155276.16    782.22461    565591.91     83.60398    82.250419    82.250419 
 6990000    538.57521   -157499.77   -155272.12    603.72251    565591.91     83.57546    82.264452    82.264452 
 7020000    541.55726   -157504.31   -155264.33    822.33324    565591.91    83.543481    82.280195    82.280195 
 7050000    539.34799    -157505.8   -155274.95    737.78432    565591.91     83.50817    82.297589    82.297589 
 7080000    542.73198   -157528.08   -155283.24    416.04764    565591.91    83.469667    82.316568    82.316568 
 7110000    539.35555   -157504.43   -155273.55    739.56964    565591.91    83.428122    82.337061    82.337061 
 7140000    540.70124   -157517.26   -155280.82    645.76599    565591.91      83.3837     82.35899     82.35899 
 7170000    538.34958   -157503.26   -155276.54    507.51091    565591.91    83.336577    82.382272    82.382272 
 7200000    535.66677   -157524.72    -155309.1    435.17809    565591.91    83.286939    82.406818    82.406818 
 7230000    542.64893    -157512.3   -155267.79    656.10025    565591.91     83.23498    82.432535    82.432535 
 7260000    541.53799    -157505.7   -155265.79    617.35024    565591.91    83.180907    82.459324    82.459324 
 7290000    539.89566   -157506.29   -155273.18    464.54474    565591.91    83.124933    82.487082    82.487082 
 7320000    540.88589   -157528.21      -155291    508.23596    565591.91    83.067278    82.515703    82.515703 
 7350000    540.01874   -157522.76   -155289.14    541.33739    565591.91     83.00817    82.545076    82.545076 
 7380000    536.33433   -157521.26   -155302.88    415.01827    565591.91    82.947843    82.575088    82.575088 
 7410000    543.37224   -157501.66   -155254.16    814.20622    565591.91    82.886535    82.605622    82.605622 
 7440000    539.11131   -157515.48   -155285.61    641.45874    565591.91    82.824487    82.636558    82.636558 
 7470000    539.81792   -157520.88   -155288.09    557.66873    565591.91    82.761944    82.667776    82.667776 
 7500000    541.52099   -157506.03   -155266.19    676.18048    565591.91    82.699153    82.699153    82.699153 
 7530000    540.54999   -157524.43   -155288.61    424.43799    565591.91    82.636363    82.730566    82.730566 
 7560000    537.83463   -157507.39   -155282.81    568.69095    565591.91     82.57382    82.761891    82.761891 
 7590000    539.06968   -157506.89   -155277.19    555.89391    565591.91    82.511772    82.793003    82.793003 
 7620000    542.44301   -157514.13   -155270.48    691.49937    565591.91    82.450463    82.823779    82.823779 
 7650000    539.35617   -157517.84   -155286.96    636.38869    565591.91    82.390136    82.854096    82.854096 
 7680000    542.49111   -157506.77   -155262.92     512.5502    565591.91    82.331029    82.883832    82.883832 
 7710000    540.77393   -157509.15   -155272.41    608.85896    565591.91    82.273374    82.912869    82.912869 
 7740000    533.84704   -157512.99   -155304.89    546.48709    565591.91      82.2174    82.941088    82.941088 
 7770000    542.12747   -157504.53   -155262.19    774.70999    565591.91    82.163326    82.968376    82.968376 
 7800000     542.4216    -157513.4   -155269.84     682.3834    565591.91    82.111368    82.994622    82.994622 
 7830000    539.93598   -157510.94   -155277.66    573.78915    565591.91    82.061729     83.01972     83.01972 
 7860000    538.73384   -157501.42   -155273.11    729.11049    565591.91    82.014606    83.043566    83.043566 
 7890000    542.30162   -157492.49   -155249.43    870.09172    565591.91    81.970185    83.066065    83.066065 
 7920000    543.85562   -157520.65   -155271.16    620.70747    565591.91     81.92864    83.087123    83.087123 
 7950000    539.17262   -157512.35   -155282.23    613.67314    565591.91    81.890136    83.106654    83.106654 
 7980000    539.09048   -157516.52   -155286.74     576.3327    565591.91    81.854825    83.124578    83.124578 
 8010000    538.23549   -157501.38   -155275.14    796.67776    565591.91    81.822847     83.14082     83.14082 
 8040000     536.5755   -157498.94   -155279.56    665.22196    565591.91    81.794326    83.155313    83.155313 
 8070000    537.26784    -157515.1   -155292.86    639.58502    565591.91    81.769377    83.167999    83.167999 
 8100000     541.0596   -157476.49   -155238.56    924.17381    565591.91    81.748097    83.178823    83.178823 
 8130000    537.65891   -157502.35   -155278.49    725.03851    565591.91     81.73057    83.187741    83.187741 
 8160000    536.34713   -157487.63   -155269.19    758.41429    565591.91    81.716866    83.194716    83.194716 
 8190000     538.4686   -157520.83   -155293.62    542.70981    565591.91    81.707039    83.199719    83.199719 
 8220000    538.99577   -157487.27   -155257.87    908.01762    565591.91    81.701127    83.202729    83.202729 
 8250000    539.67075   -157489.53   -155257.35    713.33514    565591.91    81.699153    83.203734    83.203734 
 8280000     540.2823   -157502.61    -155267.9    656.63474    565591.91    81.701127    83.202729    83.202729 
 8310000    539.90687   -157509.23   -155276.07    687.73695    565591.91    81.707039    83.199719    83.199719 
 8340000    534.69433   -157499.01   -155287.41    614.98343    565591.91    81.716866    83.194716    83.194716 
 8370000    542.75809   -157499.92   -155254.97    775.00209    565591.91     81.73057    83.187741    83.187741 
 8400000    538.10398   -157509.18   -155283.48    706.61282    565591.91    81.748097    83.178823    83.178823 
 8430000    542.44031   -157506.88   -155263.25     755.7475    565591.91    81.769377    83.167999    83.167999 
 8460000    543.18312   -157504.52   -155257.81    713.87652    565591.91    81.794326    83.155313    83.155313 
 8490000    543.05532   -157509.67   -155263.48    682.79768    565591.91    81.822847     83.14082     83.14082 
 8520000    539.86601    -157493.2    -155260.2    852.82972    565591.91    81.854825    83.124578    83.124578 
 8550000    541.48267   -157512.28    -155272.6     610.1147    565591.91    81.890136    83.106654    83.106654 
 8580000    535.24254   -157511.13   -155297.26    670.79319    565591.91     81.92864    83.087123    83.087123 
 8610000    536.46309   -157522.23   -155303.32    630.91772    565591.91    81.970185    83.066065    83.066065 
 8640000    542.58537   -157507.46   -155263.22    551.29404    565591.91    82.014606    83.043566    83.043566 
 8670000    542.87991   -157522.65    -155277.2    726.93982    565591.91    82.061729     83.01972     83.01972 
 8700000    543.99319   -157513.69   -155263.63    660.25502    565591.91    82.111368    82.994622    82.994622 
 8730000    538.95297   -157515.39   -155286.18    648.78622    565591.91    82.163326    82.968376    82.968376 
 8760000    544.09157   -157521.34   -155270.87     626.3649    565591.91      82.2174    82.941088    82.941088 
 8790000    544.05111   -157512.36   -155262.06    648.72426    565591.91    82.273374    82.912869    82.912869 
 8820000    541.63918   -157504.53    -155264.2    739.52011    565591.91    82.331029    82.883832    82.883832 
 8850000    539.88617    -157511.1   -155278.02    671.94646    565591.91    82.390136    82.854096    82.854096 
 8880000     537.1953   -157519.83   -155297.89     471.1278    565591.91    82.450463    82.823779    82.823779 
 8910000    537.50957   -157536.41   -155313.16    503.91281    565591.91    82.511772    82.793003    82.793003 
 8940000    537.13066   -157521.34   -155299.67    530.15014    565591.91     82.57382    82.761891    82.761891 
 8970000    540.83215   -157519.72   -155282.73    614.32509    565591.91    82.636363    82.730566    82.730566 
 9000000    538.34516   -157515.92   -155289.22    570.91167    565591.91    82.699153    82.699153    82.699153 
 9030000    537.86562   -157531.78   -155307.07    616.43941    565591.91    82.761944    82.667776    82.667776 
 9060000    536.55449   -157514.51   -155295.22    560.41488    565591.91    82.824487    82.636558    82.636558 
 9090000    543.49682   -157516.12   -155268.11    596.75752    565591.91    82.886535    82.605622    82.605622 
 9120000    538.40883   -157528.61   -155301.65    365.23458    565591.91    82.947843    82.575088    82.575088 
 9150000    540.85697   -157506.47   -155269.38     670.9908    565591.91     83.00817    82.545076    82.545076 
 9180000    540.56758   -157501.55   -155265.66    756.80016    565591.91    83.067278    82.515703    82.515703 
 9210000    539.97828   -157527.03   -155293.57    445.95647    565591.91    83.124933    82.487082    82.487082 
 9240000    540.76639   -157491.98   -155255.27    764.28209    565591.91    83.180907    82.459324    82.459324 
 9270000    540.92602   -157497.97   -155260.59    752.08995    565591.91     83.23498    82.432535    82.432535 
 9300000    543.43772   -157518.73   -155270.96    440.27322    565591.91    83.286939    82.406818    82.406818 
 9330000    535.74833   -157524.49   -155308.53    494.34835    565591.91    83.336577    82.382272    82.382272 
 9360000    539.90493    -157510.1   -155276.95    557.57327    565591.91      83.3837     82.35899     82.35899 
 9390000    537.22541   -157508.69   -155286.62    531.72478    565591.91    83.428122    82.337061    82.337061 
 9420000    542.80814   -157489.54   -155244.38    872.89653    565591.91    83.469667    82.316568    82.316568 
 9450000    536.89609   -157499.99   -155279.28    589.33255    565591.91     83.50817    82.297589    82.297589 
 9480000    541.04828   -157476.61   -155238.73    848.22567    565591.91    83.543481    82.280195    82.280195 
 9510000    536.80666   -157496.86   -155276.52    620.20929    565591.91     83.57546    82.264452    82.264452 
 9540000    539.89954   -157497.49   -155264.36    746.12318    565591.91     83.60398    82.250419    82.250419 
 9570000     539.1461    -157505.4   -155275.39    596.76303    565591.91     83.62893    82.238149    82.238149 
 9600000    539.73291   -157496.27   -155263.83    569.49259    565591.91     83.65021    82.227688    82.227688 
 9630000    543.00311   -157488.92   -155242.95    816.71756    565591.91    83.667736    82.219075    82.219075 
 9660000    541.99814   -157502.22   -155260.41    737.46685    565591.91    83.681441    82.212342    82.212342 
 9690000    542.38992   -157505.11   -155261.68    603.78657    565591.91    83.691268    82.207515    82.207515 
 9720000    539.18065    -157522.4   -155292.24    570.35213    565591.91     83.69718    82.204612    82.204612 
 9750000    540.06868   -157475.64   -155241.81    869.53057    565591.91    83.699153    82.203643    82.203643 
 9780000    542.38847    -157495.6   -155252.18    770.47482    565591.91     83.69718    82.204612    82.204612 
 9810000    541.83462   -157509.24   -155268.11     520.1777    565591.91    83.691268    82.207515    82.207515 
 9840000    543.58732   -157506.01   -155257.63    655.05743    565591.91    83.681441    82.212342    82.212342 
 9870000    537.73195    -157497.5   -155273.33    675.68292    565591.91    83.667736    82.219075    82.219075 
 9900000    544.20861   -157514.54   -155263.58    610.93251    565591.91     83.65021    82.227688    82.227688 
 9930000    541.74884   -157509.12   -155268.35    634.64407    565591.91     83.62893    82.238149    82.238149 
 9960000    534.27892   -157507.13   -155297.25    638.25649    565591.91     83.60398    82.250419    82.250419 
 9990000    543.24867    -157487.8   -155240.82    813.13023    565591.91     83.57546    82.264452    82.264452 
10020000    540.64404   -157507.92   -155271.71    608.89163    565591.91    83.543481    82.280195    82.280195 
10050000    539.82662   -157500.26   -155267.43     739.5129    565591.91     83.50817    82.297589    82.297589 
10080000      539.948   -157510.78   -155277.45    611.85914    565591.91    83.469667    82.316568    82.316568 
10110000    541.58169   -157509.08   -155268.99     569.0593    565591.91    83.428122    82.337061    82.337061 
10140000    539.75671   -157499.33    -155266.8    699.10658    565591.91      83.3837     82.35899     82.35899 
10170000     538.9664   -157515.69   -155286.42    552.09732    565591.91    83.336577    82.382272    82.382272 
10200000    540.73404   -157520.78    -155284.2    515.46204    565591.91    83.286939    82.406818    82.406818 
10230000    538.12187   -157505.11   -155279.33    425.31764    565591.91     83.23498    82.432535    82.432535 
10260000    539.66971   -157532.11   -155299.93    381.34017    565591.91    83.180907    82.459324    82.459324 
10290000    539.31555    -157506.3   -155275.59    690.06252    565591.91    83.124933    82.487082    82.487082 
10320000       536.52   -157516.04   -155296.88    462.04619    565591.91    83.067278    82.515703    82.515703 
10350000    540.91183   -157505.42   -155268.11    794.01739    565591.91     83.00817    82.545076    82.545076 
10380000     539.0041   -157536.59   -155307.16     352.9788    565591.91    82.947843    82.575088    82.575088 
10410000    542.08187   -157509.29   -155267.14    583.86709    565591.91    82.886535    82.605622    82.605622 
10440000    539.12621    -157522.3   -155292.37    551.61341    565591.91    82.824487    82.636558    82.636558 
10470000    543.03228   -157513.89   -155267.81    628.52124    565591.91    82.761944    82.667776    82.667776 
10500000    535.98129   -157510.49   -155293.56    528.11957    565591.91    82.699153    82.699153    82.699153 
10530000    534.97602   -157521.14   -155308.37    422.17753    565591.91    82.636363    82.730566    82.730566 
10560000    541.22663   -157513.19   -155274.58     638.7926    565591.91     82.57382    82.761891    82.761891 
10590000    541.30397   -157522.39   -155283.45    586.78831    565591.91    82.511772    82.793003    82.793003 
10620000     539.8805   -157516.64   -155283.59    555.20949    565591.91    82.450463    82.823779    82.823779 
10650000    541.05759   -157528.72    -155290.8    556.29137    565591.91    82.390136    82.854096    82.854096 
10680000    543.51408   -157518.43   -155270.35    535.41152    565591.91    82.331029    82.883832    82.883832 
10710000    542.04736   -157528.63   -155286.61     498.8538    565591.91    82.273374    82.912869    82.912869 
10740000    538.43766   -157523.44   -155296.35    599.33802    565591.91      82.2174    82.941088    82.941088 
10770000     543.1408   -157519.65   -155273.11    431.75341    565591.91    82.163326    82.968376    82.968376 
10800000    541.60075    -157488.2   -155248.04    745.42842    565591.91    82.111368    82.994622    82.994622 
10830000    540.95543    -157501.7   -155264.21    591.38745    565591.91    82.061729     83.01972     83.01972 
10860000    536.94904   -157495.15   -155274.22    669.37476    565591.91    82.014606    83.043566    83.043566 
10890000    540.41956   -157523.04   -155287.76    538.79233    565591.91    81.970185    83.066065    83.066065 
10920000    538.90519   -157520.83   -155291.81    627.09968    565591.91     81.92864    83.087123    83.087123 
10950000    543.31164   -157513.77   -155266.52    592.73217    565591.91    81.890136    83.106654    83.106654 
10980000    536.61131    -157514.6   -155295.07    496.65005    565591.91    81.854825    83.124578    83.124578 
11010000    540.47812   -157513.84   -155278.32    641.04935    565591.91    81.822847     83.14082     83.14082 
11040000    539.73447   -157501.27   -155268.83    665.37176    565591.91    81.794326    83.155313    83.155313 
11070000    538.63573   -157494.73   -155266.83    742.53319    565591.91    81.769377    83.167999    83.167999 
11100000    539.55711   -157506.29   -155274.58    623.34519    565591.91    81.748097    83.178823    83.178823 
11130000    538.65841   -157494.22   -155266.23    707.70119    565591.91     81.73057    83.187741    83.187741 
11160000     540.7444   -157501.29   -155264.66    676.48686    565591.91    81.716866    83.194716    83.194716 
11190000    538.07722   -157488.79    -155263.2    759.38868    565591.91    81.707039    83.199719    83.199719 
11220000    536.19314   -157502.62   -155284.83    581.69316    565591.91    81.701127    83.202729    83.202729 
11250000    540.60588   -157501.13   -155265.08    709.94305    565591.91    81.699153    83.203734    83.203734 
11280000     539.1925   -157503.96   -155273.75    789.27413    565591.91    81.701127    83.202729    83.202729 
11310000    542.70662   -157492.46   -155247.72    757.17469    565591.91    81.707039    83.199719    83.199719 
11340000    538.82357   -157491.82   -155263.14    745.16444    565591.91    81.716866    83.194716    83.194716 
11370000    537.63493   -157492.84   -155269.08    730.56366    565591.91     81.73057    83.187741    83.187741 
11400000    539.74222   -157498.44   -155265.96     777.6508    565591.91    81.748097    83.178823    83.178823 
11430000    543.44743   -157490.46   -155242.66    857.53643    565591.91    81.769377    83.167999    83.167999 
11460000    540.75439   -157508.39   -155271.73    584.07297    565591.91    81.794326    83.155313    83.155313 
11490000     538.0636    -157476.1   -155250.56     892.3348    565591.91    81.822847     83.14082     83.14082 
11520000     536.0926   -157496.33   -155278.94    668.69622    565591.91    81.854825    83.124578    83.124578 
11550000    539.90807    -157502.4   -155269.23    821.20794    565591.91    81.890136    83.106654    83.106654 
11580000     536.9582   -157498.88   -155277.92    817.07347    565591.91     81.92864    83.087123    83.087123 
11610000    539.69482   -157490.76   -155258.48     783.0968    565591.91    81.970185    83.066065    83.066065 
11640000    541.36549   -157494.84   -155255.65    684.19301    565591.91    82.014606    83.043566    83.043566 
11670000    537.35227   -157521.16   -155298.57     624.8393    565591.91    82.061729     83.01972     83.01972 
11700000    539.34863   -157513.44   -155282.59    529.15119    565591.91    82.111368    82.994622    82.994622 
11730000     537.7448   -157503.75   -155279.53    785.65167    565591.91    82.163326    82.968376    82.968376 
11760000    538.99352   -157520.21   -155290.83    383.77606    565591.91      82.2174    82.941088    82.941088 
11790000     536.9942    -157514.2   -155293.09    593.36899    565591.91    82.273374    82.912869    82.912869 
11820000    540.12132   -157515.13   -155281.08    502.75741    565591.91    82.331029    82.883832    82.883832 
11850000    537.52234   -157533.46   -155310.16    417.28366    565591.91    82.390136    82.854096    82.854096 
11880000    539.30111   -157502.33   -155271.68     678.2011    565591.91    82.450463    82.823779    82.823779 
11910000    540.56112   -157503.65   -155267.78    697.19223    565591.91    82.511772    82.793003    82.793003 
11940000    539.85103   -157521.84   -155288.91    532.40859    565591.91     82.57382    82.761891    82.761891 
11970000     538.3427   -157511.52   -155284.83    676.22764    565591.91    82.636363    82.730566    82.730566 
12000000    540.72191   -157537.67   -155301.14    415.80842    565591.91    82.699153    82.699153    82.699153 
12030000    540.41311   -157528.82   -155293.56    518.84893    565591.91    82.761944    82.667776    82.667776 
12060000    534.27671   -157525.14   -155315.27    418.38548    565591.91    82.824487    82.636558    82.636558 
12090000    535.91029   -157525.73    -155309.1    329.25172    565591.91    82.886535    82.605622    82.605622 
12120000    539.57196   -157530.95   -155299.17    561.39972    565591.91    82.947843    82.575088    82.575088 
12150000    537.54673   -157506.41   -155283.01    539.07147    565591.91     83.00817    82.545076    82.545076 
12180000    541.13991   -157526.57   -155288.31    544.55678    565591.91    83.067278    82.515703    82.515703 
12210000    542.12489   -157514.64   -155272.31    623.61664    565591.91    83.124933    82.487082    82.487082 
12240000    538.79394   -157506.41   -155277.85    696.13255    565591.91    83.180907    82.459324    82.459324 
12270000    537.29082    -157500.2   -155277.86    555.22372    565591.91     83.23498    82.432535    82.432535 
12300000    534.43568   -157509.06   -155298.53    552.90692    565591.91    83.286939    82.406818    82.406818 
12330000    540.28718    -157503.9   -155269.17    653.05688    565591.91    83.336577    82.382272    82.382272 
12360000    543.64475    -157508.9   -155260.28    585.57431    565591.91      83.3837     82.35899     82.35899 
12390000    535.33389   -157491.65   -155277.41      705.506    565591.91    83.428122    82.337061    82.337061 
12420000    543.34743   -157511.38   -155263.99    673.71381    565591.91    83.469667    82.316568    82.316568 
12450000     542.0255   -157509.46   -155267.54    742.01084    565591.91     83.50817    82.297589    82.297589 
12480000    538.79865   -157503.45   -155274.88    722.30084    565591.91    83.543481    82.280195    82.280195 
12510000    538.89321   -157487.76   -155258.79    804.14485    565591.91     83.57546    82.264452    82.264452 
12540000    541.17993   -157515.45   -155277.02    463.26491    565591.91     83.60398    82.250419    82.250419 
12570000    537.09748   -157506.69   -155285.15    643.70713    565591.91     83.62893    82.238149    82.238149 
12600000    534.94618   -157487.42   -155274.78    613.16708    565591.91     83.65021    82.227688    82.227688 
12630000    536.99084   -157488.36   -155267.27    703.74596    565591.91    83.667736    82.219075    82.219075 
12660000    539.14558    -157507.6   -155277.58    681.65816    565591.91    83.681441    82.212342    82.212342 
12690000    537.97487   -157499.34   -155274.17    679.65114    565591.91    83.691268    82.207515    82.207515 
12720000    539.31382   -157525.64   -155294.94    322.39643    565591.91     83.69718    82.204612    82.204612 
12750000    540.22463   -157491.92   -155257.45    672.69467    565591.91    83.699153    82.203643    82.203643 
12780000    536.04419   -157493.65   -155276.47    682.02707    565591.91     83.69718    82.204612    82.204612 
12810000    539.67195   -157498.46   -155266.27    773.82119    565591.91    83.691268    82.207515    82.207515 
12840000    539.65457   -157494.32   -155262.21    746.56175    565591.91    83.681441    82.212342    82.212342 
12870000    538.73629   -157493.94   -155265.62    692.10177    565591.91    83.667736    82.219075    82.219075 
12900000    541.26514   -157513.95   -155275.17     585.8355    565591.91     83.65021    82.227688    82.227688 
12930000    541.28193   -157513.13   -155274.28    430.39278    565591.91     83.62893    82.238149    82.238149 
12960000    538.07109   -157505.54   -155279.98     571.7057    565591.91     83.60398    82.250419    82.250419 
12990000     539.4026   -157508.72   -155277.65    509.14413    565591.91     83.57546    82.264452    82.264452 
13020000    538.31154   -157514.19   -155287.63    539.57741    565591.91    83.543481    82.280195    82.280195 
13050000    542.29451   -157492.43    -155249.4    631.60215    565591.91     83.50817    82.297589    82.297589 
13080000     538.0975   -157502.99   -155277.31    691.85876    565591.91    83.469667    82.316568    82.316568 
13110000    540.30899   -157526.81   -155291.98    449.99155    565591.91    83.428122    82.337061    82.337061 
13140000    542.15847      -157509   -155266.53    597.47087    565591.91      83.3837     82.35899     82.35899 
13170000     538.2768      -157504   -155277.58    515.71841    565591.91    83.336577    82.382272    82.382272 
13200000    539.16735   -157510.75   -155280.65    643.79238    565591.91    83.286939    82.406818    82.406818 
13230000    537.72118   -157497.58   -155273.46    737.99945    565591.91     83.23498    82.432535    82.432535 
13260000    541.63516   -157523.09   -155282.78    428.18447    565591.91    83.180907    82.459324    82.459324 
13290000    539.53392   -157512.57   -155280.96    614.57281    565591.91    83.124933    82.487082    82.487082 
13320000    536.04101   -157502.89   -155285.72    667.16169    565591.91    83.067278    82.515703    82.515703 
13350000    539.41781   -157522.53   -155291.39    486.23491    565591.91     83.00817    82.545076    82.545076 
13380000    541.71069   -157518.12    -155277.5    652.69267    565591.91    82.947843    82.575088    82.575088 
13410000    540.55988   -157518.07   -155282.21    639.01693    565591.91    82.886535    82.605622    82.605622 
13440000    539.76595   -157503.19   -155270.61    676.23426    565591.91    82.824487    82.636558    82.636558 
13470000     538.8793   -157526.93   -155298.02     464.7311    565591.91    82.761944    82.667776    82.667776 
13500000    536.24875   -157493.31   -155275.28    789.46013    565591.91    82.699153    82.699153    82.699153 
13530000    541.56265   -157511.56   -155271.55    658.36827    565591.91    82.636363    82.730566    82.730566 
13560000     539.6357   -157544.31   -155312.27    410.91565    565591.91     82.57382    82.761891    82.761891 
13590000    540.74014   -157515.02   -155278.41    579.13642    565591.91    82.511772    82.793003    82.793003 
13620000    540.16463   -157510.14   -155275.92    642.87411    565591.91    82.450463    82.823779    82.823779 
13650000    539.74979   -157517.48   -155284.97    655.02731    565591.91    82.390136    82.854096    82.854096 
13680000    541.53937   -157523.69   -155283.77    518.68634    565591.91    82.331029    82.883832    82.883832 
13710000    532.52113   -157515.52   -155312.91    542.18594    565591.91    82.273374    82.912869    82.912869 
13740000    542.36587   -157526.86   -155283.53    577.85948    565591.91      82.2174    82.941088    82.941088 
13770000    540.39147   -157506.43   -155271.26    643.22466    565591.91    82.163326    82.968376    82.968376 
13800000    536.94148   -157515.55   -155294.66    533.25746    565591.91    82.111368    82.994622    82.994622 
13830000    541.92102   -157511.29    -155269.8    710.72537    565591.91    82.061729     83.01972     83.01972 
13860000    542.02373   -157502.98   -155261.07    653.80213    565591.91    82.014606    83.043566    83.043566 
13890000    542.96538      -157478   -155232.19    801.13743    565591.91    81.970185    83.066065    83.066065 
13920000    539.88516   -157512.38   -155279.31    634.07798    565591.91     81.92864    83.087123    83.087123 
13950000    541.79738   -157503.25   -155262.27    724.39564    565591.91    81.890136    83.106654    83.106654 
13980000    538.86754   -157515.29   -155286.43    601.17179    565591.91    81.854825    83.124578    83.124578 
14010000    540.21742   -157496.66   -155262.22    892.61403    565591.91    81.822847     83.14082     83.14082 
14040000    536.88867      -157497   -155276.32    691.48764    565591.91    81.794326    83.155313    83.155313 
14070000    539.30888   -157508.91   -155278.22    700.23742    565591.91    81.769377    83.167999    83.167999 
14100000     537.8159   -157509.83   -155285.32    647.86665    565591.91    81.748097    83.178823    83.178823 
14130000     538.4523   -157469.81   -155242.66     865.6958    565591.91     81.73057    83.187741    83.187741 
14160000     538.1039   -157507.99   -155282.28    585.38304    565591.91    81.716866    83.194716    83.194716 
14190000    540.77455   -157508.41   -155271.66    725.92696    565591.91    81.707039    83.199719    83.199719 
14220000    539.16912   -157510.25   -155280.15    524.91368    565591.91    81.701127    83.202729    83.202729 
14250000    535.60253   -157507.19   -155291.83    562.10865    565591.91    81.699153    83.203734    83.203734 
14280000    540.83012   -157502.95   -155265.97    581.58255    565591.91    81.701127    83.202729    83.202729 
14310000    540.13663   -157503.05   -155268.94     600.7143    565591.91    81.707039    83.199719    83.199719 
14340000    538.54234   -157482.64   -155255.12    772.77224    565591.91    81.716866    83.194716    83.194716 
14370000     541.1539   -157491.75   -155253.43    750.01056    565591.91     81.73057    83.187741    83.187741 
14400000    537.25152   -157511.19   -155289.01    629.31434    565591.91    81.748097    83.178823    83.178823 
14430000     542.3637   -157505.82    -155262.5    817.93952    565591.91    81.769377    83.167999    83.167999 
14460000    544.71739   -157504.52   -155251.47    516.68826    565591.91    81.794326    83.155313    83.155313 
14490000    542.00463   -157510.71   -155268.87    527.94761    565591.91    81.822847     83.14082     83.14082 
14520000    540.75766   -157516.89   -155280.21     561.8488    565591.91    81.854825    83.124578    83.124578 
14550000    541.33487   -157525.33   -155286.26    604.69934    565591.91    81.890136    83.106654    83.106654 
14580000    539.11785   -157502.75   -155272.85    717.51547    565591.91     81.92864    83.087123    83.087123 
14610000    538.13658   -157514.83   -155288.99    585.40077    565591.91    81.970185    83.066065    83.066065 
14640000    540.76885   -157523.86   -155287.13    448.66995    565591.91    82.014606    83.043566    83.043566 
14670000    537.49374   -157510.52   -155287.34    563.67887    565591.91    82.061729     83.01972     83.01972 
14700000    540.16652   -157509.09   -155274.85    510.45522    565591.91    82.111368    82.994622    82.994622 
14730000    541.07926   -157508.96   -155270.95    596.75767    565591.91    82.163326    82.968376    82.968376 
14760000    539.78977   -157520.32   -155287.64    592.34985    565591.91      82.2174    82.941088    82.941088 
14790000    541.29733   -157529.89   -155290.98    475.31834    565591.91    82.273374    82.912869    82.912869 
14820000     538.1868   -157526.45    -155300.4     507.2542    565591.91    82.331029    82.883832    82.883832 
14850000    540.13228    -157521.1      -155287    500.63812    565591.91    82.390136    82.854096    82.854096 
14880000    537.70476   -157521.81   -155297.76    468.47173    565591.91    82.450463    82.823779    82.823779 
14910000    535.59284   -157512.55   -155297.23    606.29261    565591.91    82.511772    82.793003    82.793003 
14940000    539.23868   -157517.11   -155286.71    538.31908    565591.91     82.57382    82.761891    82.761891 
14970000    540.63151    -157506.9   -155270.74    598.97893    565591.91    82.636363    82.730566    82.730566 
15000000    539.62904   -157514.75   -155282.74    572.54025    565591.91    82.699153    82.699153    82.699153 
15030000     544.9049   -157535.95   -155282.12    474.81217    565591.91    82.761944    82.667776    82.667776 
15060000    538.06938   -157524.13   -155298.57    346.55175    565591.91    82.824487    82.636558    82.636558 
15090000    542.49485   -157512.23   -155268.37    567.59309    565591.91    82.886535    82.605622    82.605622 
15120000    537.29724   -157520.75   -155298.38    506.94354    565591.91    82.947843    82.575088    82.575088 
15150000    540.28101   -157545.25   -155310.54    315.97151    565591.91     83.00817    82.545076    82.545076 
15180000    537.83311   -157525.87   -155301.29    435.36321    565591.91    83.067278    82.515703    82.515703 
15210000    542.44678   -157509.62   -155265.95    605.34392    565591.91    83.124933    82.487082    82.487082 
15240000    537.29832   -157509.61   -155287.24    603.74972    565591.91    83.180907    82.459324    82.459324 
15270000    540.64114      -157512   -155275.81    672.35063    565591.91     83.23498    82.432535    82.432535 
15300000    540.82271   -157502.55    -155265.6    580.93043    565591.91    83.286939    82.406818    82.406818 
15330000    538.06737   -157524.22   -155298.67    414.53501    565591.91    83.336577    82.382272    82.382272 
15360000    540.97947    -157508.1    -155270.5    608.44823    565591.91      83.3837     82.35899     82.35899 
15390000    542.40152   -157494.68   -155251.21    875.06924    565591.91    83.428122    82.337061    82.337061 
15420000    542.20971   -157506.29    -155263.6     731.8359    565591.91    83.469667    82.316568    82.316568 
15450000    540.66661    -157515.9    -155279.6    576.71733    565591.91     83.50817    82.297589    82.297589 
15480000    539.00713   -157501.68   -155272.24    667.25557    565591.91    83.543481    82.280195    82.280195 
15510000     538.7654   -157532.74    -155304.3    354.10588    565591.91     83.57546    82.264452    82.264452 
15540000    542.68136   -157497.65   -155253.01    673.43402    565591.91     83.60398    82.250419    82.250419 
15570000    537.12909   -157482.12   -155260.45    785.73829    565591.91     83.62893    82.238149    82.238149 
15600000    538.77668   -157511.79    -155283.3    614.39933    565591.91     83.65021    82.227688    82.227688 
15630000    540.35439   -157520.16   -155285.15    500.13258    565591.91    83.667736    82.219075    82.219075 
15660000    540.46611   -157523.37    -155287.9    482.14123    565591.91    83.681441    82.212342    82.212342 
15690000    535.63821   -157518.44   -155302.94    514.42379    565591.91    83.691268    82.207515    82.207515 
15720000    536.70717   -157507.51   -155287.59    626.97348    565591.91     83.69718    82.204612    82.204612 
15750000    539.73785   -157494.94   -155262.47    635.87349    565591.91    83.699153    82.203643    82.203643 
15780000    541.43216   -157493.75   -155254.29    754.78086    565591.91     83.69718    82.204612    82.204612 
15810000    543.27016   -157501.86   -155254.79    460.72404    565591.91    83.691268    82.207515    82.207515 
15840000    537.80938   -157509.87   -155285.38    601.02776    565591.91    83.681441    82.212342    82.212342 
15870000    539.38201   -157509.42   -155278.43    681.79598    565591.91    83.667736    82.219075    82.219075 
15900000    539.97737   -157500.34   -155266.89    679.72919    565591.91     83.65021    82.227688    82.227688 
15930000    538.10124   -157507.34   -155281.65    733.27518    565591.91     83.62893    82.238149    82.238149 
15960000    541.72918   -157491.07   -155250.37    737.20349    565591.91     83.60398    82.250419    82.250419 
15990000    539.92243   -157499.88   -155266.65    642.91569    565591.91     83.57546    82.264452    82.264452 
16020000    537.19082   -157507.14   -155285.21    516.24939    565591.91    83.543481    82.280195    82.280195 
16050000     538.2658   -157525.93   -155299.56     425.8444    565591.91     83.50817    82.297589    82.297589 
16080000    541.90793   -157504.54    -155263.1    732.32106    565591.91    83.469667    82.316568    82.316568 
16110000    543.78459   -157500.56   -155251.36    639.68548    565591.91    83.428122    82.337061    82.337061 
16140000    541.87763   -157540.22   -155298.91    439.54045    565591.91      83.3837     82.35899     82.35899 
16170000    541.25485   -157526.78   -155288.05    587.02106    565591.91    83.336577    82.382272    82.382272 
16200000    538.11383   -157507.49   -155281.74    476.03734    565591.91    83.286939    82.406818    82.406818 
16230000    539.45888   -157512.21    -155280.9    533.01474    565591.91     83.23498    82.432535    82.432535 
16260000    544.00927   -157515.08   -155264.95     738.3312    565591.91    83.180907    82.459324    82.459324 
16290000    534.89871   -157503.37   -155290.93    556.97316    565591.91    83.124933    82.487082    82.487082 
16320000    541.97757   -157522.95   -155281.23    569.56741    565591.91    83.067278    82.515703    82.515703 
16350000     537.3005   -157511.56   -155289.18    625.68534    565591.91     83.00817    82.545076    82.545076 
16380000    534.55278   -157497.92   -155286.91    624.05938    565591.91    82.947843    82.575088    82.575088 
16410000     541.2918   -157516.86   -155277.98    518.30391    565591.91    82.886535    82.605622    82.605622 
16440000    537.79808   -157518.32   -155293.88    500.97603    565591.91    82.824487    82.636558    82.636558 
16470000    539.98715   -157503.92   -155270.43    596.05587    565591.91    82.761944    82.667776    82.667776 
16500000    536.04575   -157537.57   -155320.38    549.83604    565591.91    82.699153    82.699153    82.699153 
16530000    538.17244   -157503.85   -155277.86    712.98499    565591.91    82.636363    82.730566    82.730566 
16560000    538.11991   -157527.23   -155301.46     494.8132    565591.91     82.57382    82.761891    82.761891 
16590000    536.14162   -157507.51   -155289.93    617.90014    565591.91    82.511772    82.793003    82.793003 
16620000    538.25499   -157515.63   -155289.31    629.64574    565591.91    82.450463    82.823779    82.823779 
16650000    539.09798   -157529.85   -155300.03    555.57975    565591.91    82.390136    82.854096    82.854096 
16680000    541.67342   -157517.84   -155277.37    605.07119    565591.91    82.331029    82.883832    82.883832 
16710000    536.64033   -157504.16   -155284.52    576.20291    565591.91    82.273374    82.912869    82.912869 
16740000    540.47535   -157504.05   -155268.53    686.45154    565591.91      82.2174    82.941088    82.941088 
16770000    541.74827   -157522.99   -155282.21    592.57071    565591.91    82.163326    82.968376    82.968376 
16800000    541.22526   -157516.76   -155278.15    594.39395    565591.91    82.111368    82.994622    82.994622 
16830000    537.39467   -157505.07    -155282.3    589.11392    565591.91    82.061729     83.01972     83.01972 
16860000     540.5625   -157545.96   -155310.09     323.4665    565591.91    82.014606    83.043566    83.043566 
16890000    537.98376    -157492.8    -155267.6    779.72338    565591.91    81.970185    83.066065    83.066065 
16920000    539.26023   -157517.06   -155286.57    435.83092    565591.91     81.92864    83.087123    83.087123 
16950000     541.5644   -157499.16   -155259.14    707.37477    565591.91    81.890136    83.106654    83.106654 
16980000    538.62621   -157496.25   -155268.39    699.42379    565591.91    81.854825    83.124578    83.124578 
17010000    539.35323   -157515.72   -155284.85    563.75815    565591.91    81.822847     83.14082     83.14082 
17040000    539.62989   -157506.07   -155274.06    540.09683    565591.91    81.794326    83.155313    83.155313 
17070000    540.77688   -157502.18   -155265.42    677.13744    565591.91    81.769377    83.167999    83.167999 
17100000    540.34345   -157513.27   -155278.31    679.25983    565591.91    81.748097    83.178823    83.178823 
17130000    542.63625   -157512.61   -155268.16    609.92708    565591.91     81.73057    83.187741    83.187741 
17160000      539.999   -157494.72   -155261.18    776.98314    565591.91    81.716866    83.194716    83.194716 
17190000    539.83331   -157498.32   -155265.47    755.70391    565591.91    81.707039    83.199719    83.199719 
17220000    541.47331   -157489.05   -155249.41     735.7641    565591.91    81.701127    83.202729    83.202729 
17250000    535.41305   -157503.74   -155289.17    674.10102    565591.91    81.699153    83.203734    83.203734 
17280000    539.34797   -157487.22   -155256.37    656.89982    565591.91    81.701127    83.202729    83.202729 
17310000    540.32376   -157495.55   -155260.67    733.74099    565591.91    81.707039    83.199719    83.199719 
17340000    538.60878   -157503.81   -155276.02    644.92209    565591.91    81.716866    83.194716    83.194716 
17370000    539.55654   -157497.24   -155265.53     867.6099    565591.91     81.73057    83.187741    83.187741 
17400000    543.37753   -157492.56   -155245.04    773.88281    565591.91    81.748097    83.178823    83.178823 
17430000    540.47186   -157480.73   -155245.24     801.8713    565591.91    81.769377    83.167999    83.167999 
17460000    539.24257   -157501.65   -155271.24    652.67315    565591.91    81.794326    83.155313    83.155313 
17490000    545.75347   -157498.91   -155241.57    721.84588    565591.91    81.822847     83.14082     83.14082 
17520000    539.69109   -157504.82   -155272.55    729.93976    565591.91    81.854825    83.124578    83.124578 
17550000    539.35473   -157526.97   -155296.09    646.25337    565591.91    81.890136    83.106654    83.106654 
17580000    538.72205   -157506.56    -155278.3    521.25921    565591.91     81.92864    83.087123    83.087123 
17610000    541.73969    -157508.7   -155267.96    553.21091    565591.91    81.970185    83.066065    83.066065 
17640000    540.57379   -157506.11   -155270.19    652.94848    565591.91    82.014606    83.043566    83.043566 
17670000    538.75188    -157515.5   -155287.11     546.7325    565591.91    82.061729     83.01972     83.01972 
17700000    539.40516   -157520.06   -155288.97     557.1667    565591.91    82.111368    82.994622    82.994622 
17730000    541.18918   -157488.87    -155250.4    862.61603    565591.91    82.163326    82.968376    82.968376 
17760000    539.81861    -157508.5   -155275.71    655.25836    565591.91      82.2174    82.941088    82.941088 
17790000    538.25745   -157501.47   -155275.14    697.03408    565591.91    82.273374    82.912869    82.912869 
17820000    545.05089   -157528.78   -155274.34    524.32037    565591.91    82.331029    82.883832    82.883832 
17850000    534.81275   -157494.58   -155282.49    652.25619    565591.91    82.390136    82.854096    82.854096 
17880000    541.43519   -157520.68    -155281.2    564.50637    565591.91    82.450463    82.823779    82.823779 
17910000     538.1498   -157514.65   -155288.75    578.44642    565591.91    82.511772    82.793003    82.793003 
17940000    540.84405   -157519.45   -155282.42    550.81132    565591.91     82.57382    82.761891    82.761891 
17970000    542.37427   -157507.16    -155263.8    605.64044    565591.91    82.636363    82.730566    82.730566 
18000000    540.21106   -157525.29   -155290.87    522.19249    565591.91    82.699153    82.699153    82.699153 
18030000    544.91087   -157522.69   -155268.83    603.34384    565591.91    82.761944    82.667776    82.667776 
18060000    540.41145   -157505.38   -155270.13    693.29749    565591.91    82.824487    82.636558    82.636558 
18090000    536.73489    -157506.8   -155286.76    621.21804    565591.91    82.886535    82.605622    82.605622 
18120000    541.38919   -157514.43   -155275.14    654.64095    565591.91    82.947843    82.575088    82.575088 
18150000    540.15147    -157533.2   -155299.03    507.23717    565591.91     83.00817    82.545076    82.545076 
18180000    540.03243   -157514.66   -155280.98    681.23906    565591.91    83.067278    82.515703    82.515703 
18210000    543.12305   -157511.11   -155264.64    579.57231    565591.91    83.124933    82.487082    82.487082 
18240000    539.85299   -157511.35   -155278.41     732.8259    565591.91    83.180907    82.459324    82.459324 
18270000    538.43996   -157521.94   -155294.84    579.16845    565591.91     83.23498    82.432535    82.432535 
18300000    542.05044    -157525.7   -155283.67    561.35065    565591.91    83.286939    82.406818    82.406818 
18330000    542.97019   -157512.69   -155266.86    612.38209    565591.91    83.336577    82.382272    82.382272 
18360000    539.75155   -157519.46   -155286.94    483.01648    565591.91      83.3837     82.35899     82.35899 
18390000    537.85223   -157497.39   -155272.73    707.41383    565591.91    83.428122    82.337061    82.337061 
18420000    540.19507   -157500.73   -155266.38    744.82767    565591.91    83.469667    82.316568    82.316568 
18450000    542.27986   -157493.09   -155250.11    720.36641    565591.91     83.50817    82.297589    82.297589 
18480000    540.89778   -157501.85    -155264.6    701.52909    565591.91    83.543481    82.280195    82.280195 
18510000    542.20956   -157496.04   -155253.35    669.79585    565591.91     83.57546    82.264452    82.264452 
18540000    542.11675   -157487.88   -155245.58    796.76794    565591.91     83.60398    82.250419    82.250419 
18570000    538.87459   -157507.88   -155278.99    633.55128    565591.91     83.62893    82.238149    82.238149 
18600000    540.90631   -157512.18   -155274.88    616.13032    565591.91     83.65021    82.227688    82.227688 
18630000    538.51366   -157499.75   -155272.36     669.1969    565591.91    83.667736    82.219075    82.219075 
18660000    542.80413   -157498.84    -155253.7    750.19036    565591.91    83.681441    82.212342    82.212342 
18690000    537.12486   -157493.11   -155271.45    770.78545    565591.91    83.691268    82.207515    82.207515 
18720000      543.933   -157495.43   -155245.62    649.77117    565591.91     83.69718    82.204612    82.204612 
18750000     542.3158   -157505.21   -155262.08    695.70102    565591.91    83.699153    82.203643    82.203643 
18780000    541.33218   -157517.19   -155278.14    489.09033    565591.91     83.69718    82.204612    82.204612 
18810000    536.02706   -157484.72   -155267.61    904.73928    565591.91    83.691268    82.207515    82.207515 
18840000    540.00981   -157495.18    -155261.6    665.35476    565591.91    83.681441    82.212342    82.212342 
18870000    541.59948   -157503.53   -155263.37    746.49989    565591.91    83.667736    82.219075    82.219075 
18900000    541.49509   -157504.89   -155265.16    664.22784    565591.91     83.65021    82.227688    82.227688 
18930000    540.05741   -157503.25   -155269.46    593.50852    565591.91     83.62893    82.238149    82.238149 
18960000    541.47098   -157491.74   -155252.11    752.75326    565591.91     83.60398    82.250419    82.250419 
18990000    536.79884   -157517.44   -155297.13    584.70302    565591.91     83.57546    82.264452    82.264452 
19020000    536.86391   -157522.61   -155302.04    667.06745    565591.91    83.543481    82.280195    82.280195 
19050000    541.57668   -157507.89   -155267.82    748.09641    565591.91     83.50817    82.297589    82.297589 
19080000    535.94835   -157519.42   -155302.63    588.83499    565591.91    83.469667    82.316568    82.316568 
19110000    542.41633   -157512.71   -155269.17    545.19857    565591.91    83.428122    82.337061    82.337061 
19140000    540.21056    -157520.2   -155285.78    553.81901    565591.91      83.3837     82.35899     82.35899 
19170000    539.41986   -157518.66   -155287.51    467.80127    565591.91    83.336577    82.382272    82.382272 
19200000    542.10987   -157506.18   -155263.91    540.99683    565591.91    83.286939    82.406818    82.406818 
19230000    538.85354   -157527.17   -155298.36    488.68217    565591.91     83.23498    82.432535    82.432535 
19260000     538.3402   -157505.25   -155278.57    641.63169    565591.91    83.180907    82.459324    82.459324 
19290000    539.35262   -157515.55   -155284.69    618.40352    565591.91    83.124933    82.487082    82.487082 
19320000    541.11874   -157512.25   -155274.08    615.59966    565591.91    83.067278    82.515703    82.515703 
19350000    542.08034    -157530.7   -155288.55    534.41522    565591.91     83.00817    82.545076    82.545076 
19380000    537.82999   -157524.19   -155299.62    546.97527    565591.91    82.947843    82.575088    82.575088 
19410000    537.19053   -157512.91   -155290.98     624.8709    565591.91    82.886535    82.605622    82.605622 
19440000    539.99058   -157516.35   -155282.84    599.43729    565591.91    82.824487    82.636558    82.636558 
19470000    539.70416   -157514.89   -155282.57    642.82384    565591.91    82.761944    82.667776    82.667776 
19500000    535.35111   -157495.52    -155281.2    665.91843    565591.91    82.699153    82.699153    82.699153 
19530000    541.52436   -157523.28   -155283.43    535.20048    565591.91    82.636363    82.730566    82.730566 
19560000    546.14175   -157526.23   -155267.28    597.64336    565591.91     82.57382    82.761891    82.761891 
19590000    540.76892    -157521.9   -155285.18    540.80164    565591.91    82.511772    82.793003    82.793003 
19620000    541.34257   -157508.26   -155269.16    726.99222    565591.91    82.450463    82.823779    82.823779 
19650000    539.72844   -157517.33   -155284.91    510.01668    565591.91    82.390136    82.854096    82.854096 
19680000     540.2851   -157506.95   -155272.22    657.72126    565591.91    82.331029    82.883832    82.883832 
19710000    539.56178   -157513.81   -155282.07    567.41037    565591.91    82.273374    82.912869    82.912869 
19740000    541.92779   -157503.55   -155262.03    573.62248    565591.91      82.2174    82.941088    82.941088 
19770000    538.98669   -157523.65   -155294.29    518.34933    565591.91    82.163326    82.968376    82.968376 
19800000    540.43165   -157524.58   -155289.25    418.98535    565591.91    82.111368    82.994622    82.994622 
19830000    539.44752   -157505.75   -155274.49    647.71609    565591.91    82.061729     83.01972     83.01972 
19860000    535.73779   -157523.37   -155307.45    615.68966    565591.91    82.014606    83.043566    83.043566 
19890000    542.35018   -157506.26   -155262.99    652.20636    565591.91    81.970185    83.066065    83.066065 
19920000    537.33903   -157513.61   -155291.07    592.13221    565591.91     81.92864    83.087123    83.087123 
19950000    542.22407   -157482.94   -155240.19    660.93611    565591.91    81.890136    83.106654    83.106654 
19980000    536.52514   -157514.12   -155294.94    496.69018    565591.91    81.854825    83.124578    83.124578 
20010000    538.25787   -157517.64    -155291.3    584.83306    565591.91    81.822847     83.14082     83.14082 
20040000    536.73395   -157500.04      -155280    634.56249    565591.91    81.794326    83.155313    83.155313 
20070000    540.74651   -157505.05   -155268.42    673.43779    565591.91    81.769377    83.167999    83.167999 
20100000    535.63014   -157505.73   -155290.26    673.63476    565591.91    81.748097    83.178823    83.178823 
20130000     540.4572   -157505.35   -155269.91    578.28362    565591.91     81.73057    83.187741    83.187741 
20160000     542.1976   -157486.48   -155243.85    717.17564    565591.91    81.716866    83.194716    83.194716 
20190000    541.85462   -157499.53   -155258.32    653.20913    565591.91    81.707039    83.199719    83.199719 
20220000    540.21109   -157510.06   -155275.65     648.3397    565591.91    81.701127    83.202729    83.202729 
20250000    538.34819   -157496.52   -155269.81    747.38246    565591.91    81.699153    83.203734    83.203734 
20280000    540.65956   -157491.34   -155255.07     776.5126    565591.91    81.701127    83.202729    83.202729 
20310000    544.08456    -157511.4   -155260.96    588.02985    565591.91    81.707039    83.199719    83.199719 
20340000    543.53244   -157506.55   -155258.39    588.32387    565591.91    81.716866    83.194716    83.194716 
20370000    539.04822   -157508.51    -155278.9    501.17932    565591.91     81.73057    83.187741    83.187741 
20400000    537.00128   -157512.25   -155291.11    567.13344    565591.91    81.748097    83.178823    83.178823 
20430000    543.08124   -157526.87   -155280.58    483.90264    565591.91    81.769377    83.167999    83.167999 
20460000     541.0176   -157495.62   -155257.87    748.43577    565591.91    81.794326    83.155313    83.155313 
20490000    535.24091   -157514.96    -155301.1    657.43027    565591.91    81.822847     83.14082     83.14082 
20520000    542.58614   -157490.35   -155246.11    737.03132    565591.91    81.854825    83.124578    83.124578 
20550000    541.32299   -157511.64   -155272.62      607.808    565591.91    81.890136    83.106654    83.106654 
20580000    541.23446   -157521.16   -155282.51    510.04017    565591.91     81.92864    83.087123    83.087123 
[...]
25140000    538.98835      -157530   -155300.64    610.25858    565591.91      83.3837     82.35899     82.35899 
25170000    540.86456   -157523.41   -155286.29    646.05295    565591.91    83.336577    82.382272    82.382272 
25200000    538.72428   -157524.64   -155296.37    431.86218    565591.91    83.286939    82.406818    82.406818 
25230000    537.11628   -157507.27   -155285.65     600.4878    565591.91     83.23498    82.432535    82.432535 
25260000    543.35298   -157503.91    -155256.5     725.1898    565591.91    83.180907    82.459324    82.459324 
25290000    538.46783   -157510.12   -155282.91    578.12122    565591.91    83.124933    82.487082    82.487082 
25320000    539.76934    -157516.3   -155283.71    522.04418    565591.91    83.067278    82.515703    82.515703 
25350000    537.99881   -157529.72   -155304.45    386.41164    565591.91     83.00817    82.545076    82.545076 
25380000    544.18312   -157503.74   -155252.89    709.14555    565591.91    82.947843    82.575088    82.575088 
25410000    540.57997   -157513.82   -155277.88    533.59035    565591.91    82.886535    82.605622    82.605622 
25440000    540.30611    -157535.9   -155301.09    502.94865    565591.91    82.824487    82.636558    82.636558 
25470000    538.66898   -157502.27   -155274.23    731.52107    565591.91    82.761944    82.667776    82.667776 
25500000    543.76519   -157506.75   -155257.64    587.91806    565591.91    82.699153    82.699153    82.699153 
25530000    539.92404   -157521.25   -155288.02    604.56988    565591.91    82.636363    82.730566    82.730566 
25560000    536.25481   -157521.25   -155303.19    487.93471    565591.91     82.57382    82.761891    82.761891 
25590000    547.59097   -157517.59   -155252.64    527.94898    565591.91    82.511772    82.793003    82.793003 
25620000     538.1598    -157521.1   -155295.17    461.70914    565591.91    82.450463    82.823779    82.823779 
25650000    541.04612   -157527.69   -155289.81    605.44922    565591.91    82.390136    82.854096    82.854096 
25680000    536.74611   -157517.87   -155297.78    389.85032    565591.91    82.331029    82.883832    82.883832 
25710000     542.2486    -157524.4   -155281.56    448.27857    565591.91    82.273374    82.912869    82.912869 
25740000    539.61834   -157492.04   -155260.07     745.4833    565591.91      82.2174    82.941088    82.941088 
25770000    539.23704   -157509.16   -155278.77    591.21567    565591.91    82.163326    82.968376    82.968376 
25800000    543.06656   -157532.44   -155286.21    418.25693    565591.91    82.111368    82.994622    82.994622 
25830000    540.18035   -157509.18   -155274.89    496.54864    565591.91    82.061729     83.01972     83.01972 
25860000    539.13949   -157512.51   -155282.52    676.13566    565591.91    82.014606    83.043566    83.043566 
25890000    537.38498   -157512.76   -155290.03    513.26928    565591.91    81.970185    83.066065    83.066065 
25920000    537.26752   -157520.71   -155298.47    621.57598    565591.91     81.92864    83.087123    83.087123 
25950000    540.59657   -157499.43   -155263.42    785.16723    565591.91    81.890136    83.106654    83.106654 
25980000    542.57375   -157522.35   -155278.16    617.68708    565591.91    81.854825    83.124578    83.124578 
26010000    534.90673    -157520.5   -155308.02     343.0655    565591.91    81.822847     83.14082     83.14082 
26040000    543.56053   -157494.46   -155246.19     648.9291    565591.91    81.794326    83.155313    83.155313 
26070000    542.78367   -157489.69   -155244.63    812.99986    565591.91    81.769377    83.167999    83.167999 
26100000    541.95863    -157514.2   -155272.56    678.63595    565591.91    81.748097    83.178823    83.178823 
26130000    540.16317   -157498.73   -155264.51    649.02914    565591.91     81.73057    83.187741    83.187741 
26160000    541.47458   -157518.81   -155279.17    493.39055    565591.91    81.716866    83.194716    83.194716 
26190000    540.16091   -157486.69   -155252.48    718.32384    565591.91    81.707039    83.199719    83.199719 
26220000    539.66078   -157508.16   -155276.01     600.3334    565591.91    81.701127    83.202729    83.202729 
26250000    543.25386   -157495.63   -155248.63    736.38783    565591.91    81.699153    83.203734    83.203734 
26280000     544.3544   -157492.89   -155241.33    708.92439    565591.91    81.701127    83.202729    83.202729 
26310000    541.78308   -157474.52    -155233.6    916.99244    565591.91    81.707039    83.199719    83.199719 
26340000    540.66216   -157507.23   -155270.95    720.51056    565591.91    81.716866    83.194716    83.194716 
26370000    542.52144   -157487.47   -155243.49    860.50312    565591.91     81.73057    83.187741    83.187741 
26400000    538.93986   -157490.56    -155261.4    725.74161    565591.91    81.748097    83.178823    83.178823 
26430000    539.74063   -157483.78   -155251.31    808.17186    565591.91    81.769377    83.167999    83.167999 
26460000    544.62456   -157506.78   -155254.11    595.21077    565591.91    81.794326    83.155313    83.155313 
26490000    543.81888   -157519.37   -155270.03    648.99564    565591.91    81.822847     83.14082     83.14082 
26520000    538.84836   -157506.18    -155277.4    650.04822    565591.91    81.854825    83.124578    83.124578 
26550000    539.92403   -157523.76   -155290.53    461.92139    565591.91    81.890136    83.106654    83.106654 
26580000    542.58753   -157512.09   -155267.84    577.53239    565591.91     81.92864    83.087123    83.087123 
26610000    539.34531   -157493.19   -155262.35    657.02623    565591.91    81.970185    83.066065    83.066065 
26640000    543.75232   -157501.28   -155252.22    654.17386    565591.91    82.014606    83.043566    83.043566 
26670000    541.38976    -157496.2   -155256.91    781.89649    565591.91    82.061729     83.01972     83.01972 
26700000    538.55669   -157523.37   -155295.79    513.56929    565591.91    82.111368    82.994622    82.994622 
26730000    541.10736   -157515.02   -155276.89    485.40353    565591.91    82.163326    82.968376    82.968376 
26760000     541.0511   -157503.43   -155265.54      669.832    565591.91      82.2174    82.941088    82.941088 
26790000    542.19845   -157505.89   -155263.25     690.4003    565591.91    82.273374    82.912869    82.912869 
26820000    540.71098   -157480.14   -155243.65    904.57377    565591.91    82.331029    82.883832    82.883832 
26850000    535.87117    -157517.1   -155300.63     558.6943    565591.91    82.390136    82.854096    82.854096 
26880000    542.20673   -157528.17   -155285.49    523.50538    565591.91    82.450463    82.823779    82.823779 
26910000    539.96508   -157529.97   -155296.57    473.67461    565591.91    82.511772    82.793003    82.793003 
26940000    539.04812    -157503.4   -155273.79    719.01058    565591.91     82.57382    82.761891    82.761891 
26970000    539.82479   -157514.73   -155281.91    583.43451    565591.91    82.636363    82.730566    82.730566 
27000000    537.65406    -157499.7   -155275.86    648.52151    565591.91    82.699153    82.699153    82.699153 
27030000    539.74821   -157517.49   -155284.99    583.06407    565591.91    82.761944    82.667776    82.667776 
27060000    538.93353   -157528.17   -155299.03    514.13883    565591.91    82.824487    82.636558    82.636558 
27090000     542.5299   -157490.03   -155246.02    907.56085    565591.91    82.886535    82.605622    82.605622 
27120000    542.72396   -157513.75   -155268.94    550.30057    565591.91    82.947843    82.575088    82.575088 
27150000    542.91497   -157529.47   -155283.86    558.56851    565591.91     83.00817    82.545076    82.545076 
27180000    541.88665   -157526.37   -155285.02    506.48996    565591.91    83.067278    82.515703    82.515703 
27210000     539.6282    -157515.4   -155283.39    669.21369    565591.91    83.124933    82.487082    82.487082 
27240000    540.06684   -157501.87   -155268.05    696.08904    565591.91    83.180907    82.459324    82.459324 
27270000    538.32132   -157496.51   -155269.91    782.94343    565591.91     83.23498    82.432535    82.432535 
27300000    538.00416   -157503.18   -155277.89     663.5523    565591.91    83.286939    82.406818    82.406818 
27330000    538.43486   -157517.74   -155290.67    588.85846    565591.91    83.336577    82.382272    82.382272 
27360000    539.62985   -157512.66   -155280.65    547.15822    565591.91      83.3837     82.35899     82.35899 
27390000    539.86235   -157515.82   -155282.84    643.53663    565591.91    83.428122    82.337061    82.337061 
27420000    536.10076   -157495.63   -155278.22    699.96734    565591.91    83.469667    82.316568    82.316568 
27450000    539.27826   -157503.76    -155273.2    873.52124    565591.91     83.50817    82.297589    82.297589 
27480000    541.29533   -157507.94   -155269.04     617.3705    565591.91    83.543481    82.280195    82.280195 
27510000    540.30451   -157516.37   -155281.57    598.77863    565591.91     83.57546    82.264452    82.264452 
27540000    540.48754   -157497.91   -155262.35    576.16916    565591.91     83.60398    82.250419    82.250419 
27570000    540.50645   -157512.39   -155276.75    688.42161    565591.91     83.62893    82.238149    82.238149 
27600000    541.72342   -157512.78   -155272.11    658.28173    565591.91     83.65021    82.227688    82.227688 
27630000    539.09873   -157496.62    -155266.8    723.59994    565591.91    83.667736    82.219075    82.219075 
27660000     541.1035   -157498.79   -155260.68    732.45389    565591.91    83.681441    82.212342    82.212342 
27690000    541.17294   -157517.11   -155278.71    552.01448    565591.91    83.691268    82.207515    82.207515 
27720000    534.77837   -157502.94   -155290.99    543.80738    565591.91     83.69718    82.204612    82.204612 
27750000    539.34975   -157510.72   -155279.86    624.62469    565591.91    83.699153    82.203643    82.203643 
27780000    538.25514    -157501.9   -155275.57     813.8104    565591.91     83.69718    82.204612    82.204612 
27810000    537.69092   -157512.21   -155288.21    446.32536    565591.91    83.691268    82.207515    82.207515 
27840000    540.34371   -157500.18   -155265.21    738.27041    565591.91    83.681441    82.212342    82.212342 
27870000    542.55332   -157497.44   -155253.33    750.58076    565591.91    83.667736    82.219075    82.219075 
27900000    541.78927   -157502.04    -155261.1    713.09418    565591.91     83.65021    82.227688    82.227688 
27930000    543.68075   -157518.34   -155269.57    699.78917    565591.91     83.62893    82.238149    82.238149 
27960000    538.26578   -157504.73   -155278.36    539.71056    565591.91     83.60398    82.250419    82.250419 
27990000    537.53796   -157499.43   -155276.07    588.26149    565591.91     83.57546    82.264452    82.264452 
28020000    542.39834   -157509.62   -155266.15    694.96016    565591.91    83.543481    82.280195    82.280195 
28050000    541.37338    -157516.6   -155277.38    544.52771    565591.91     83.50817    82.297589    82.297589 
28080000     538.2038    -157510.2   -155284.08    503.80384    565591.91    83.469667    82.316568    82.316568 
28110000    540.55617    -157502.3   -155266.45     604.9748    565591.91    83.428122    82.337061    82.337061 
28140000    540.62815    -157511.2   -155275.05    637.42016    565591.91      83.3837     82.35899     82.35899 
28170000    540.79069    -157530.5   -155293.68    509.85459    565591.91    83.336577    82.382272    82.382272 
28200000    538.26443   -157509.56    -155283.2    627.97621    565591.91    83.286939    82.406818    82.406818 
28230000    540.22091   -157527.07   -155292.61    456.57381    565591.91     83.23498    82.432535    82.432535 
28260000    543.36634   -157528.06   -155280.59    537.03569    565591.91    83.180907    82.459324    82.459324 
28290000    541.48597   -157510.13   -155270.44    648.49856    565591.91    83.124933    82.487082    82.487082 
28320000    536.30214    -157532.6   -155314.35    454.03749    565591.91    83.067278    82.515703    82.515703 
28350000    541.07895   -157528.12   -155290.11    527.88379    565591.91     83.00817    82.545076    82.545076 
28380000     544.1246   -157522.97   -155272.37    585.16804    565591.91    82.947843    82.575088    82.575088 
28410000    535.17769   -157512.83   -155299.23    552.93271    565591.91    82.886535    82.605622    82.605622 
28440000    543.02183      -157520   -155273.96    517.89791    565591.91    82.824487    82.636558    82.636558 
28470000    541.15732   -157525.44    -155287.1    727.61802    565591.91    82.761944    82.667776    82.667776 
28500000    538.60727   -157526.75   -155298.97    338.34632    565591.91    82.699153    82.699153    82.699153 
28530000    537.27718   -157517.45   -155295.17    475.12015    565591.91    82.636363    82.730566    82.730566 
28560000    541.47969   -157515.92   -155276.25    654.11106    565591.91     82.57382    82.761891    82.761891 
28590000    539.42771   -157499.05   -155267.87     698.1622    565591.91    82.511772    82.793003    82.793003 
28620000    543.66636   -157505.79   -155257.08    722.33403    565591.91    82.450463    82.823779    82.823779 
28650000      541.776   -157506.35   -155265.46    564.31501    565591.91    82.390136    82.854096    82.854096 
28680000    542.06719   -157531.45   -155289.35    411.30269    565591.91    82.331029    82.883832    82.883832 
28710000    541.87268   -157524.43   -155283.14    522.51856    565591.91    82.273374    82.912869    82.912869 
28740000    538.81258   -157532.64   -155304.01    436.55158    565591.91      82.2174    82.941088    82.941088 
28770000    538.45723   -157509.29   -155282.13    566.70491    565591.91    82.163326    82.968376    82.968376 
28800000    536.90791   -157511.51   -155290.76    490.31048    565591.91    82.111368    82.994622    82.994622 
28830000    539.99598   -157518.79   -155285.26    547.82022    565591.91    82.061729     83.01972     83.01972 
28860000    538.29619      -157527    -155300.5    467.93387    565591.91    82.014606    83.043566    83.043566 
28890000    539.96667   -157525.59   -155292.18    507.52126    565591.91    81.970185    83.066065    83.066065 
28920000    543.25852   -157500.55   -155253.53    805.20656    565591.91     81.92864    83.087123    83.087123 
28950000    537.68428   -157509.95   -155285.99     606.3708    565591.91    81.890136    83.106654    83.106654 
28980000    539.42248   -157510.94   -155279.78    630.95824    565591.91    81.854825    83.124578    83.124578 
29010000    541.27347   -157495.35   -155256.54    765.69792    565591.91    81.822847     83.14082     83.14082 
29040000    536.80417   -157492.17   -155271.84    672.94624    565591.91    81.794326    83.155313    83.155313 
29070000    535.38782   -157503.78   -155289.31    445.73345    565591.91    81.769377    83.167999    83.167999 
29100000    542.19617   -157512.81   -155270.18    641.92985    565591.91    81.748097    83.178823    83.178823 
29130000    537.97725   -157493.75   -155268.57    680.24532    565591.91     81.73057    83.187741    83.187741 
29160000    539.74982   -157488.21    -155255.7    750.69357    565591.91    81.716866    83.194716    83.194716 
29190000    541.28703   -157518.06   -155279.19    624.81944    565591.91    81.707039    83.199719    83.199719 
29220000    544.09551   -157490.45   -155239.96    714.17195    565591.91    81.701127    83.202729    83.202729 
29250000    541.94975   -157500.68   -155259.07    746.04429    565591.91    81.699153    83.203734    83.203734 
29280000    538.45769   -157501.69   -155274.52    606.28962    565591.91    81.701127    83.202729    83.202729 
29310000    540.69787   -157494.93    -155258.5    789.47651    565591.91    81.707039    83.199719    83.199719 
29340000    542.44692   -157511.02   -155267.36    728.41739    565591.91    81.716866    83.194716    83.194716 
29370000    544.17201   -157499.67   -155248.86     764.8412    565591.91     81.73057    83.187741    83.187741 
29400000    543.12299   -157503.91   -155257.45     760.3382    565591.91    81.748097    83.178823    83.178823 
29430000    540.18596   -157504.96   -155270.65    643.86892    565591.91    81.769377    83.167999    83.167999 
29460000    537.40939   -157510.71   -155287.88    604.99698    565591.91    81.794326    83.155313    83.155313 
29490000    541.94441   -157510.96   -155269.37     719.7889    565591.91    81.822847     83.14082     83.14082 
29520000    544.54098   -157483.87   -155231.54    843.20146    565591.91    81.854825    83.124578    83.124578 
29550000    537.05919   -157479.65   -155258.27    868.29517    565591.91    81.890136    83.106654    83.106654 
29580000    536.73044   -157501.31   -155281.29    696.58717    565591.91     81.92864    83.087123    83.087123 
29610000    536.74883   -157525.34   -155305.24    446.46944    565591.91    81.970185    83.066065    83.066065 
29640000     538.5151   -157484.71   -155257.31    788.08823    565591.91    82.014606    83.043566    83.043566 
29670000    541.32921   -157509.11   -155270.07    646.43014    565591.91    82.061729     83.01972     83.01972 
29700000     538.6375   -157521.67   -155293.76    606.40278    565591.91    82.111368    82.994622    82.994622 
29730000    539.03462   -157506.05    -155276.5    682.26218    565591.91    82.163326    82.968376    82.968376 
29760000    535.72691   -157520.63   -155304.76    510.40969    565591.91      82.2174    82.941088    82.941088 
29790000    538.82891   -157522.43   -155293.72    479.12854    565591.91    82.273374    82.912869    82.912869 
29820000    539.84172    -157523.7   -155290.81    522.03176    565591.91    82.331029    82.883832    82.883832 
29850000    540.80756   -157513.47   -155276.58    657.02768    565591.91    82.390136    82.854096    82.854096 
29880000    542.17727   -157512.46   -155269.91     513.9002    565591.91    82.450463    82.823779    82.823779 
29910000    542.24483   -157504.57   -155261.74    723.40803    565591.91    82.511772    82.793003    82.793003 
29940000    539.58568   -157519.42   -155287.58    547.01769    565591.91     82.57382    82.761891    82.761891 
29970000    539.97177   -157534.32   -155300.89    498.67656    565591.91    82.636363    82.730566    82.730566 
30000000    540.34626   -157518.15   -155283.18    621.58133    565591.91    82.699153    82.699153    82.699153 
Loop time of 60576 on 2 procs for 30000000 steps with 32000 atoms

Performance: 427.892 ns/day, 0.056 hours/ns, 495.245 timesteps/s
92.2% CPU use with 2 MPI tasks x 1 OpenMP threads

MPI task timing breakdown:
Section |  min time  |  avg time  |  max time  |%varavg| %total
---------------------------------------------------------------
Pair    | 27784      | 29003      | 30222      | 715.8 | 47.88
Neigh   | 117.17     | 119.11     | 121.05     |  17.8 |  0.20
Comm    | 6924.7     | 6990.2     | 7055.8     |  78.4 | 11.54
Output  | 0.45432    | 0.47995    | 0.50557    |   3.7 |  0.00
Modify  | 20943      | 22092      | 23242      | 773.5 | 36.47
Other   |            | 2371       |            |       |  3.91

Nlocal:        16000.0 ave       16009 max       15991 min
Histogram: 1 0 0 0 0 0 0 0 0 1
Nghost:        16822.0 ave       16866 max       16778 min
Histogram: 1 0 0 0 0 0 0 0 0 1
Neighs:        0.00000 ave           0 max           0 min
Histogram: 2 0 0 0 0 0 0 0 0 0

Total # of neighbors = 0
Ave neighs/atom = 0.0000000
Neighbor list builds = 2736277
Dangerous builds = 0
clear
OMP_NUM_THREADS environment is not set. Defaulting to 1 thread. (../comm.cpp:94)
  using 1 OpenMP thread(s) per MPI task
package gpu 1
jump dms550.lmp
#MD-DMS by Ha-Bin Yu
#package gpu 4
variable T equal 550
log log.${T}
log log.550
