units           metal
boundary        p p p
atom_style      atomic
read_data      ../../restart/T${T}.dat
read_data      ../../restart/T690.dat
Reading data file ...
  orthogonal box = (-2.5271790 -2.5271790 -2.5271790) to (80.361957 80.361957 80.361957)
  2 by 3 by 4 MPI processor grid
  reading atoms ...
  32000 atoms
  reading velocities ...
  32000 velocities
  read_data CPU = 0.148 seconds
pair_style      eam/alloy
pair_coeff      * *  ../../ZrCu.lammps.eam Zr Cu
mass 1 91.224
mass 2 63.546
neighbor            2.0 bin
neigh_modify     delay 1
timestep 0.01
thermo 30000
reset_timestep 0
thermo_style custom step temp pe etotal press vol lx ly lz
fix             1 all nvt temp ${T} ${T} 0.1
fix             1 all nvt temp 690 ${T} 0.1
fix             1 all nvt temp 690 690 0.1
thermo_modify flush yes
fix nodrift all momentum 1  linear 1 1 1
fix com_seed all recenter INIT INIT INIT shift all
fix dsf all deform 1 x  wiggle 1.0  30000.0 y volume z volume units box
fix ps1 all ave/time 1 1 30000 c_thermo_press[1] c_thermo_press[2]  c_thermo_press[3] c_thermo_press[4]  c_thermo_press[5] c_thermo_press[6]  file  stress.${T}
fix ps1 all ave/time 1 1 30000 c_thermo_press[1] c_thermo_press[2]  c_thermo_press[3] c_thermo_press[4]  c_thermo_press[5] c_thermo_press[6]  file  stress.690
dump            1 all custom 3000000 dump.${T} id type x y z
dump            1 all custom 3000000 dump.690 id type x y z
dump_modify 1 sort id
run 30000000
Neighbor list info ...
  update every 1 steps, delay 1 steps, check yes
  max neighbors/atom: 2000, page size: 100000
  master list distance cutoff = 8.5
  ghost atom cutoff = 8.5
  binsize = 4.25, bins = 20 20 20
  1 neighbor lists, perpetual/occasional/extra = 1 0 0
  (1) pair eam/alloy/intel, perpetual
      attributes: half, newton on, intel
      pair build: half/bin/newton/intel
      stencil: half/bin/3d/newton
      bin: intel
Per MPI rank memory allocation (min/avg/max) = 16.24 | 16.42 | 16.58 Mbytes
Step Temp PotEng TotEng Press Volume Lx Ly Lz 
       0    688.74588   -156682.44   -153833.65    135.17953    569498.82    82.889136    82.889136    82.889136 
   30000    686.42751   -156626.97   -153787.77    445.31116    569498.82    82.951926    82.857758    82.857758 
   60000    683.46818   -156634.95   -153807.99    687.73129    569498.82    83.014469     82.82654     82.82654 
   90000     686.8589   -156637.91   -153796.92    535.65877    569498.82    83.076517    82.795604    82.795604 
  120000    683.25162   -156650.61   -153824.55    463.42155    569498.82    83.137825     82.76507     82.76507 
  150000    693.78267   -156649.72    -153780.1    513.98343    569498.82    83.198153    82.735058    82.735058 
  180000    691.17948   -156648.11   -153789.26    469.35065    569498.82     83.25726    82.705684    82.705684 
  210000    688.48621   -156644.81    -153797.1    290.41321    569498.82    83.314915    82.677063    82.677063 
  240000    690.65443   -156635.41   -153778.73    671.42427    569498.82    83.370889    82.649304    82.649304 
  270000    692.52782   -156642.43      -153778    347.65175    569498.82    83.424962    82.622514    82.622514 
  300000    690.46456   -156649.85   -153793.96     428.0856    569498.82    83.476921    82.596797    82.596797 
  330000    693.99875   -156624.77   -153754.26    651.26961    569498.82     83.52656     82.57225     82.57225 
  360000    689.36445   -156626.89   -153775.54    495.73397    569498.82    83.573683    82.548968    82.548968 
  390000     691.4497   -156657.33   -153797.36    354.36891    569498.82    83.618104    82.527038    82.527038 
  420000    692.54484   -156618.17   -153753.67    562.89235    569498.82    83.659649    82.506544    82.506544 
  450000    691.56924   -156636.79   -153776.32    385.20905    569498.82    83.698153    82.487564    82.487564 
  480000    687.34743   -156640.26   -153797.26     295.7362    569498.82    83.733464     82.47017     82.47017 
  510000    689.54485   -156657.31   -153805.21    343.61349    569498.82    83.765442    82.454426    82.454426 
  540000    692.74507   -156629.41   -153764.08    576.33276    569498.82    83.793963    82.440393    82.440393 
  570000    692.25935   -156640.81   -153777.49    537.56059    569498.82    83.818912    82.428122    82.428122 
  600000    685.74717   -156636.36   -153799.98    536.13073    569498.82    83.840192    82.417661    82.417661 
  630000    687.95869   -156632.77   -153787.24    332.30947    569498.82    83.857719    82.409047    82.409047 
  660000    687.64495   -156636.46   -153792.22    442.56967    569498.82    83.871423    82.402315    82.402315 
  690000    690.92111   -156639.95   -153782.17    514.62764    569498.82     83.88125    82.397487    82.397487 
  720000    686.96566   -156641.76   -153800.34    508.71512    569498.82    83.887162    82.394584    82.394584 
  750000    690.57045    -156617.1   -153760.76    621.38945    569498.82    83.889136    82.393615    82.393615 
  780000    694.32904   -156664.69   -153792.81    183.93017    569498.82    83.887162    82.394584    82.394584 
  810000     690.6051   -156655.23   -153798.75     295.0219    569498.82     83.88125    82.397487    82.397487 
  840000    685.91333   -156631.31   -153794.23    310.84732    569498.82    83.871423    82.402315    82.402315 
  870000    691.93859   -156628.37   -153766.38    457.57892    569498.82    83.857719    82.409047    82.409047 
  900000    696.44275   -156626.32    -153745.7    454.15765    569498.82    83.840192    82.417661    82.417661 
  930000    690.31042   -156634.85   -153779.59    476.74821    569498.82    83.818912    82.428122    82.428122 
  960000    690.96608   -156638.48   -153780.51    380.38358    569498.82    83.793963    82.440393    82.440393 
  990000    688.67169   -156635.06   -153786.58    376.37965    569498.82    83.765442    82.454426    82.454426 
 1020000     690.0586   -156635.56   -153781.34    398.09877    569498.82    83.733464     82.47017     82.47017 
 1050000    689.78619   -156627.91   -153774.82    482.76874    569498.82    83.698153    82.487564    82.487564 
 1080000    690.35448   -156635.66   -153780.22    313.57181    569498.82    83.659649    82.506544    82.506544 
 1110000    691.91207   -156648.42   -153786.54    504.96099    569498.82    83.618104    82.527038    82.527038 
 1140000    688.06657   -156640.72   -153794.74    415.97265    569498.82    83.573683    82.548968    82.548968 
 1170000    692.86739   -156628.86   -153763.02    568.84277    569498.82     83.52656     82.57225     82.57225 
 1200000    686.73014   -156636.78   -153796.33    368.69633    569498.82    83.476921    82.596797    82.596797 
 1230000    687.24431   -156612.27    -153769.7    633.75806    569498.82    83.424962    82.622514    82.622514 
 1260000    690.76275   -156632.56   -153775.43    571.68642    569498.82    83.370889    82.649304    82.649304 
 1290000    690.01228    -156617.4   -153763.37    570.17932    569498.82    83.314915    82.677063    82.677063 
 1320000    692.75018   -156648.36   -153783.01    344.69298    569498.82     83.25726    82.705684    82.705684 
 1350000    688.90185   -156653.54    -153804.1    388.92205    569498.82    83.198153    82.735058    82.735058 
 1380000     688.6017   -156626.84   -153778.65    531.97214    569498.82    83.137825     82.76507     82.76507 
 1410000    688.01084   -156629.46   -153783.71    578.77078    569498.82    83.076517    82.795604    82.795604 
 1440000    695.26093   -156616.31   -153740.58    572.35954    569498.82    83.014469     82.82654     82.82654 
 1470000    692.19523   -156654.96   -153791.91    325.89208    569498.82    82.951926    82.857758    82.857758 
 1500000    689.50095   -156647.44   -153795.53    305.48949    569498.82    82.889136    82.889136    82.889136 
 1530000    689.33106   -156654.18   -153802.97    280.72769    569498.82    82.826345    82.920549    82.920549 
 1560000    686.22893   -156627.69   -153789.32    439.54718    569498.82    82.763802    82.951873    82.951873 
 1590000    689.40387   -156620.74   -153769.24    521.04811    569498.82    82.701754    82.982985    82.982985 
 1620000    689.20283   -156640.76   -153790.09    518.36052    569498.82    82.640446    83.013761    83.013761 
 1650000     686.3911      -156626   -153786.95    377.36025    569498.82    82.580119    83.044077    83.044077 
 1680000     689.4137   -156635.09   -153783.54    420.59124    569498.82    82.521011    83.073813    83.073813 
 1710000    687.64591   -156621.72   -153777.49    360.18079    569498.82    82.463356    83.102849    83.102849 
 1740000    687.06276   -156619.45   -153777.62    610.54903    569498.82    82.407382    83.131068    83.131068 
 1770000    694.67379   -156613.98   -153740.67    533.20929    569498.82    82.353309    83.158355    83.158355 
 1800000     683.1787   -156646.21   -153820.45    347.68548    569498.82     82.30135    83.184601    83.184601 
 1830000    687.58431   -156622.19   -153778.21    430.96616    569498.82    82.251712    83.209698    83.209698 
 1860000    690.49888   -156611.92   -153755.89    547.85519    569498.82    82.204589    83.233544    83.233544 
 1890000     695.6245   -156625.73   -153748.49    445.96424    569498.82    82.160167    83.256042    83.256042 
 1920000    692.74833   -156635.15   -153769.81     260.9982    569498.82    82.118622    83.277099    83.277099 
 1950000    687.88153   -156601.46   -153756.25    651.25407    569498.82    82.080119    83.296629    83.296629 
 1980000    680.85702    -156635.3   -153819.15     330.8223    569498.82    82.044808    83.314552    83.314552 
 2010000    688.46306   -156622.92    -153775.3     357.8151    569498.82    82.012829    83.330794    83.330794 
 2040000    689.41699   -156633.12   -153781.55    517.90795    569498.82    81.984309    83.345287    83.345287 
 2070000    694.75881   -156618.82   -153745.16    595.53293    569498.82    81.959359    83.357972    83.357972 
 2100000     694.2362   -156643.55   -153772.05    314.80321    569498.82    81.938079    83.368795    83.368795 
 2130000    692.76131   -156619.55   -153754.16    401.64617    569498.82    81.920552    83.377713    83.377713 
 2160000    689.75552   -156605.61   -153752.65    568.34483    569498.82    81.906848    83.384688    83.384688 
 2190000    692.32893   -156637.77   -153774.16    382.67138    569498.82    81.897021    83.389691    83.389691 
 2220000    690.47808   -156628.02   -153772.07    347.53331    569498.82    81.891109    83.392701    83.392701 
 2250000    691.43746   -156617.48   -153757.56    529.55218    569498.82    81.889136    83.393706    83.393706 
 2280000    694.40599    -156623.6    -153751.4    460.90015    569498.82    81.891109    83.392701    83.392701 
 2310000    693.30127   -156622.46   -153754.83     383.0222    569498.82    81.897021    83.389691    83.389691 
 2340000    686.18235   -156643.13   -153804.94     216.4643    569498.82    81.906848    83.384688    83.384688 
 2370000    689.96003   -156629.55   -153775.74    452.68498    569498.82    81.920552    83.377713    83.377713 
 2400000    687.46445   -156628.23   -153784.75    436.17254    569498.82    81.938079    83.368795    83.368795 
 2430000    688.77686   -156616.62    -153767.7    313.38522    569498.82    81.959359    83.357972    83.357972 
 2460000    689.32358    -156612.5   -153761.33    551.88576    569498.82    81.984309    83.345287    83.345287 
 2490000    697.73052   -156608.69   -153722.74    618.57679    569498.82    82.012829    83.330794    83.330794 
 2520000     691.8646   -156604.08   -153742.39    563.02347    569498.82    82.044808    83.314552    83.314552 
 2550000    690.64986   -156631.32   -153774.66     426.3067    569498.82    82.080119    83.296629    83.296629 
 2580000    686.89431   -156611.81   -153770.68    486.39639    569498.82    82.118622    83.277099    83.277099 
 2610000    689.53777   -156584.72   -153732.65    702.49506    569498.82    82.160167    83.256042    83.256042 
 2640000    691.96847    -156584.1   -153721.98    503.81707    569498.82    82.204589    83.233544    83.233544 
 2670000    688.37634   -156621.58   -153774.33    215.07375    569498.82    82.251712    83.209698    83.209698 
 2700000    684.15786   -156646.21    -153816.4    105.54342    569498.82     82.30135    83.184601    83.184601 
 2730000    689.43767   -156628.56   -153776.91    310.02266    569498.82    82.353309    83.158355    83.158355 
 2760000    691.12789   -156650.74    -153792.1    186.74648    569498.82    82.407382    83.131068    83.131068 
 2790000    687.31224   -156604.04   -153761.19    540.37987    569498.82    82.463356    83.102849    83.102849 
 2820000    688.94835   -156632.47   -153782.85    94.137821    569498.82    82.521011    83.073813    83.073813 
 2850000    690.41862    -156642.7   -153786.99    133.35245    569498.82    82.580119    83.044077    83.044077 
 2880000    690.43373   -156639.53   -153783.76    360.25268    569498.82    82.640446    83.013761    83.013761 
 2910000    686.16101   -156616.02   -153777.92    500.52394    569498.82    82.701754    82.982985    82.982985 
 2940000    687.78342   -156642.04   -153797.23    291.47581    569498.82    82.763802    82.951873    82.951873 
 2970000    691.69823   -156602.48   -153741.48    409.83049    569498.82    82.826345    82.920549    82.920549 
 3000000    688.77739   -156636.41   -153787.49    374.19706    569498.82    82.889136    82.889136    82.889136 
 3030000    697.31999   -156632.19   -153747.94    192.80881    569498.82    82.951926    82.857758    82.857758 
 3060000    688.38671   -156621.82   -153774.52    418.66143    569498.82    83.014469     82.82654     82.82654 
 3090000    692.45871   -156632.83   -153768.68    42.651164    569498.82    83.076517    82.795604    82.795604 
 3120000    688.35856   -156613.53   -153766.35    510.03187    569498.82    83.137825     82.76507     82.76507 
 3150000     701.8776   -156621.86   -153718.75    552.52424    569498.82    83.198153    82.735058    82.735058 
 3180000    686.83436   -156626.88      -153786    150.46639    569498.82     83.25726    82.705684    82.705684 
 3210000    689.25418   -156590.44   -153739.55    791.99771    569498.82    83.314915    82.677063    82.677063 
 3240000    687.79011   -156590.77   -153745.93    596.99743    569498.82    83.370889    82.649304    82.649304 
 3270000    687.54118   -156656.92   -153813.12    363.97955    569498.82    83.424962    82.622514    82.622514 
 3300000    687.73676   -156625.68   -153781.06    365.93463    569498.82    83.476921    82.596797    82.596797 
 3330000    689.18312   -156627.31   -153776.72    326.78103    569498.82     83.52656     82.57225     82.57225 
 3360000    685.82505   -156615.38   -153778.68    460.84405    569498.82    83.573683    82.548968    82.548968 
 3390000     691.9417   -156656.74   -153794.73    316.97579    569498.82    83.618104    82.527038    82.527038 
 3420000    694.20457   -156629.59   -153758.22    503.50095    569498.82    83.659649    82.506544    82.506544 
 3450000    693.81162   -156645.69   -153775.95    421.22593    569498.82    83.698153    82.487564    82.487564 
 3480000    690.19487   -156607.32   -153752.53    533.49931    569498.82    83.733464     82.47017     82.47017 
 3510000    688.71145    -156613.3   -153764.66    516.35703    569498.82    83.765442    82.454426    82.454426 
 3540000    694.15289   -156631.78   -153760.63    459.54759    569498.82    83.793963    82.440393    82.440393 
 3570000    689.98522   -156632.61   -153778.69    361.37203    569498.82    83.818912    82.428122    82.428122 
 3600000    683.90276   -156654.99   -153826.23   -37.857583    569498.82    83.840192    82.417661    82.417661 
 3630000    691.98142   -156642.01   -153779.84    169.28084    569498.82    83.857719    82.409047    82.409047 
 3660000    688.75705   -156640.42   -153791.58    258.05596    569498.82    83.871423    82.402315    82.402315 
 3690000     687.7905    -156637.9   -153793.07     240.0295    569498.82     83.88125    82.397487    82.397487 
 3720000    686.68799   -156632.77   -153792.49    169.61622    569498.82    83.887162    82.394584    82.394584 
 3750000    687.93564   -156634.12   -153788.68    235.90977    569498.82    83.889136    82.393615    82.393615 
 3780000    685.19273   -156601.78   -153767.69    421.28063    569498.82    83.887162    82.394584    82.394584 
 3810000    686.69623   -156628.08   -153787.77    288.54246    569498.82     83.88125    82.397487    82.397487 
 3840000    695.44601   -156615.38   -153738.88    512.10489    569498.82    83.871423    82.402315    82.402315 
 3870000    690.02246   -156629.55   -153775.48     208.5196    569498.82    83.857719    82.409047    82.409047 
 3900000    689.44272   -156622.55   -153770.88    275.09764    569498.82    83.840192    82.417661    82.417661 
 3930000    688.21559   -156628.95   -153782.35     288.8439    569498.82    83.818912    82.428122    82.428122 
 3960000    687.79194    -156650.7   -153805.85     243.9802    569498.82    83.793963    82.440393    82.440393 
 3990000    691.06081   -156618.57   -153760.21    562.25155    569498.82    83.765442    82.454426    82.454426 
 4020000    687.29448   -156622.43   -153779.64     371.2273    569498.82    83.733464     82.47017     82.47017 
 4050000     696.8246   -156626.14   -153743.93    401.20189    569498.82    83.698153    82.487564    82.487564 
 4080000    689.64833   -156619.79   -153767.27    355.39464    569498.82    83.659649    82.506544    82.506544 
 4110000    687.89119   -156608.23   -153762.98    470.50642    569498.82    83.618104    82.527038    82.527038 
 4140000    692.56545   -156661.03   -153796.45    254.28115    569498.82    83.573683    82.548968    82.548968 
 4170000    695.93797   -156623.84    -153745.3    470.45382    569498.82     83.52656     82.57225     82.57225 
 4200000    688.79795   -156638.31   -153789.31    285.53184    569498.82    83.476921    82.596797    82.596797 
 4230000    685.69798   -156630.27   -153794.08     352.7237    569498.82    83.424962    82.622514    82.622514 
 4260000    690.36662   -156632.52   -153777.03    281.43375    569498.82    83.370889    82.649304    82.649304 
 4290000    697.89014   -156648.08   -153761.47    404.03292    569498.82    83.314915    82.677063    82.677063 
 4320000    691.51901   -156648.78   -153788.52    408.16854    569498.82     83.25726    82.705684    82.705684 
 4350000     690.6133   -156624.37   -153767.86    410.27999    569498.82    83.198153    82.735058    82.735058 
 4380000    689.67329   -156617.36   -153764.74    416.90039    569498.82    83.137825     82.76507     82.76507 
 4410000    695.24102   -156617.37   -153741.72    465.97398    569498.82    83.076517    82.795604    82.795604 
 4440000     687.0781   -156647.23   -153805.34    212.18032    569498.82    83.014469     82.82654     82.82654 
 4470000    691.58289   -156623.22    -153762.7    199.39162    569498.82    82.951926    82.857758    82.857758 
 4500000    690.58448   -156621.81   -153765.41    349.89104    569498.82    82.889136    82.889136    82.889136 
 4530000     691.2509   -156641.72   -153782.57    302.84547    569498.82    82.826345    82.920549    82.920549 
 4560000     686.9347   -156635.32   -153794.02    441.17035    569498.82    82.763802    82.951873    82.951873 
 4590000    689.22682   -156639.72   -153788.94    351.57162    569498.82    82.701754    82.982985    82.982985 
 4620000    692.64522   -156635.02    -153770.1    464.54558    569498.82    82.640446    83.013761    83.013761 
 4650000     687.4384    -156621.4   -153778.02    465.74979    569498.82    82.580119    83.044077    83.044077 
 4680000    690.00206   -156623.26   -153769.28    512.95673    569498.82    82.521011    83.073813    83.073813 
 4710000    687.07549   -156634.09   -153792.21    311.27148    569498.82    82.463356    83.102849    83.102849 
 4740000    693.30433   -156629.36   -153761.71    459.63291    569498.82    82.407382    83.131068    83.131068 
 4770000    691.65288   -156634.26   -153773.45    280.37312    569498.82    82.353309    83.158355    83.158355 
 4800000    683.62216   -156639.26   -153811.66    286.92776    569498.82     82.30135    83.184601    83.184601 
 4830000    685.60352   -156652.04   -153816.25    66.104008    569498.82    82.251712    83.209698    83.209698 
 4860000    691.26642   -156634.38   -153775.16    263.93036    569498.82    82.204589    83.233544    83.233544 
 4890000    690.17056   -156651.19   -153796.51    170.50121    569498.82    82.160167    83.256042    83.256042 
 4920000    689.15986   -156638.32   -153787.82    377.10536    569498.82    82.118622    83.277099    83.277099 
 4950000    692.09813   -156615.35    -153752.7    646.16955    569498.82    82.080119    83.296629    83.296629 
 4980000    689.50756    -156649.3   -153797.36    280.70668    569498.82    82.044808    83.314552    83.314552 
 5010000    690.26967   -156634.63   -153779.54    341.26429    569498.82    82.012829    83.330794    83.330794 
 5040000    690.16396   -156626.53   -153771.88    435.84186    569498.82    81.984309    83.345287    83.345287 
 5070000    691.48324   -156629.01    -153768.9    319.80811    569498.82    81.959359    83.357972    83.357972 
 5100000     690.0851   -156640.93   -153786.61    400.46908    569498.82    81.938079    83.368795    83.368795 
 5130000    688.37002   -156628.92   -153781.69    373.95697    569498.82    81.920552    83.377713    83.377713 
 5160000    688.07562   -156606.39   -153760.38    372.33844    569498.82    81.906848    83.384688    83.384688 
 5190000    694.33432   -156601.88   -153729.97    592.12666    569498.82    81.897021    83.389691    83.389691 
 5220000    689.75103   -156632.19   -153779.25    450.09351    569498.82    81.891109    83.392701    83.392701 
 5250000     688.6233    -156623.2   -153774.92    413.54616    569498.82    81.889136    83.393706    83.393706 
 5280000    693.99588   -156621.09   -153750.58    430.90688    569498.82    81.891109    83.392701    83.392701 
 5310000    691.95908   -156663.86   -153801.78    186.90429    569498.82    81.897021    83.389691    83.389691 
 5340000    689.46037   -156621.34    -153769.6    283.44033    569498.82    81.906848    83.384688    83.384688 
 5370000    688.47158   -156617.22   -153769.57    440.10325    569498.82    81.920552    83.377713    83.377713 
 5400000    694.95878    -156611.2   -153736.72    484.10582    569498.82    81.938079    83.368795    83.368795 
 5430000    687.20656   -156597.46   -153755.04    438.15561    569498.82    81.959359    83.357972    83.357972 
 5460000    695.07078   -156611.16   -153736.21    550.28753    569498.82    81.984309    83.345287    83.345287 
 5490000    692.00993    -156598.2   -153735.91    604.46964    569498.82    82.012829    83.330794    83.330794 
 5520000    691.83366   -156621.62   -153760.06    460.24807    569498.82    82.044808    83.314552    83.314552 
 5550000    687.56504   -156602.06   -153758.15    497.18898    569498.82    82.080119    83.296629    83.296629 
 5580000    684.03759    -156610.6   -153781.29    448.15622    569498.82    82.118622    83.277099    83.277099 
 5610000    692.16696   -156619.03   -153756.09    602.08485    569498.82    82.160167    83.256042    83.256042 
 5640000    690.75813   -156615.21    -153758.1    396.11173    569498.82    82.204589    83.233544    83.233544 
 5670000     687.6449   -156631.49   -153787.26    380.22304    569498.82    82.251712    83.209698    83.209698 
 5700000    694.82501   -156638.92   -153764.98    436.09624    569498.82     82.30135    83.184601    83.184601 
 5730000    691.31457   -156615.02   -153755.61    537.73222    569498.82    82.353309    83.158355    83.158355 
 5760000    687.35678   -156608.79   -153765.74    437.09532    569498.82    82.407382    83.131068    83.131068 
 5790000    691.15803   -156649.56   -153790.79    320.55552    569498.82    82.463356    83.102849    83.102849 
 5820000    682.18043   -156645.79   -153824.16    225.31776    569498.82    82.521011    83.073813    83.073813 
 5850000    687.85881   -156622.35   -153777.23     397.8968    569498.82    82.580119    83.044077    83.044077 
 5880000    693.87896   -156616.67   -153746.65    545.52309    569498.82    82.640446    83.013761    83.013761 
 5910000    694.40202   -156655.65   -153783.46    369.73422    569498.82    82.701754    82.982985    82.982985 
 5940000    689.69518   -156623.01    -153770.3    549.21579    569498.82    82.763802    82.951873    82.951873 
 5970000    688.50132   -156615.14   -153767.37    553.97553    569498.82    82.826345    82.920549    82.920549 
 6000000    687.91203   -156629.29   -153783.95    419.10712    569498.82    82.889136    82.889136    82.889136 
 6030000    695.36418   -156635.42   -153759.26    324.43884    569498.82    82.951926    82.857758    82.857758 
 6060000    690.80599   -156627.22   -153769.91    633.22707    569498.82    83.014469     82.82654     82.82654 
 6090000    686.13841    -156634.9   -153796.89    276.51453    569498.82    83.076517    82.795604    82.795604 
 6120000    691.36529   -156633.97   -153774.34    299.84676    569498.82    83.137825     82.76507     82.76507 
 6150000    688.98854   -156647.91   -153798.12    237.92511    569498.82    83.198153    82.735058    82.735058 
 6180000    688.16637   -156665.25   -153818.86     249.8315    569498.82     83.25726    82.705684    82.705684 
 6210000     695.3662   -156606.85   -153730.68    646.55251    569498.82    83.314915    82.677063    82.677063 
 6240000    693.10353    -156628.5   -153761.69    483.01513    569498.82    83.370889    82.649304    82.649304 
 6270000    690.55063   -156618.76   -153762.51    618.69044    569498.82    83.424962    82.622514    82.622514 
 6300000    685.57722   -156639.76   -153804.08    268.22592    569498.82    83.476921    82.596797    82.596797 
 6330000    682.20444   -156634.66   -153812.93     348.6558    569498.82     83.52656     82.57225     82.57225 
 6360000    689.80818   -156640.15   -153786.97    258.27712    569498.82    83.573683    82.548968    82.548968 
 6390000    691.23334   -156631.21   -153772.14    465.83912    569498.82    83.618104    82.527038    82.527038 
 6420000     689.5803   -156626.16   -153773.93    487.50349    569498.82    83.659649    82.506544    82.506544 
 6450000    690.76134   -156605.44   -153748.31    537.89289    569498.82    83.698153    82.487564    82.487564 
 6480000    688.19477   -156612.58   -153766.07     424.1904    569498.82    83.733464     82.47017     82.47017 
 6510000    694.64202   -156615.39   -153742.22    630.12451    569498.82    83.765442    82.454426    82.454426 
 6540000    689.40332   -156605.28   -153753.78    558.71726    569498.82    83.793963    82.440393    82.440393 
 6570000    690.14422   -156595.88   -153741.31    642.28387    569498.82    83.818912    82.428122    82.428122 
 6600000    696.04445   -156641.78   -153762.81     471.4922    569498.82    83.840192    82.417661    82.417661 
 6630000     692.1264   -156624.47    -153761.7    511.40367    569498.82    83.857719    82.409047    82.409047 
 6660000    689.24001   -156606.41   -153755.58    596.33049    569498.82    83.871423    82.402315    82.402315 
 6690000    695.18005   -156585.69   -153710.29    635.28932    569498.82     83.88125    82.397487    82.397487 
 6720000    686.97137   -156623.45      -153782    337.86668    569498.82    83.887162    82.394584    82.394584 
 6750000     695.1692   -156595.36      -153720     511.7481    569498.82    83.889136    82.393615    82.393615 
 6780000     690.6571   -156615.53   -153758.84    560.75076    569498.82    83.887162    82.394584    82.394584 
 6810000    690.31899   -156613.88   -153758.58    367.81335    569498.82     83.88125    82.397487    82.397487 
 6840000      693.009   -156625.35   -153758.93    318.32801    569498.82    83.871423    82.402315    82.402315 
 6870000    694.35147   -156622.57    -153750.6    539.27564    569498.82    83.857719    82.409047    82.409047 
 6900000    689.94692   -156612.32   -153758.56     526.6937    569498.82    83.840192    82.417661    82.417661 
 6930000    690.86942   -156622.88   -153765.31    457.31485    569498.82    83.818912    82.428122    82.428122 
 6960000    688.39059   -156608.44   -153761.12    412.87475    569498.82    83.793963    82.440393    82.440393 
 6990000    692.91153   -156617.07   -153751.05    470.94498    569498.82    83.765442    82.454426    82.454426 
 7020000    683.81108   -156625.58    -153797.2     498.4714    569498.82    83.733464     82.47017     82.47017 
 7050000     694.8806   -156624.95   -153750.79    683.80934    569498.82    83.698153    82.487564    82.487564 
 7080000    689.86291   -156605.67   -153752.26    405.44973    569498.82    83.659649    82.506544    82.506544 
 7110000    688.16047   -156608.67    -153762.3    606.01886    569498.82    83.618104    82.527038    82.527038 
 7140000    683.81252   -156632.85   -153804.47     261.0582    569498.82    83.573683    82.548968    82.548968 
 7170000    689.22982   -156623.98   -153773.19    316.95863    569498.82     83.52656     82.57225     82.57225 
 7200000    692.24912    -156604.3   -153741.02    621.49839    569498.82    83.476921    82.596797    82.596797 
 7230000    691.41012   -156657.34   -153797.53    326.63595    569498.82    83.424962    82.622514    82.622514 
 7260000    689.08779   -156621.19   -153770.99    303.13778    569498.82    83.370889    82.649304    82.649304 
 7290000    690.76152    -156627.8   -153770.67    339.41971    569498.82    83.314915    82.677063    82.677063 
 7320000    692.00927   -156606.83   -153744.54    614.99022    569498.82     83.25726    82.705684    82.705684 
 7350000    688.70115    -156625.3    -153776.7    339.82711    569498.82    83.198153    82.735058    82.735058 
 7380000    692.30994   -156605.81   -153742.28    518.16641    569498.82    83.137825     82.76507     82.76507 
 7410000    690.30912   -156620.48   -153765.23    534.44632    569498.82    83.076517    82.795604    82.795604 
 7440000    688.21897   -156591.82   -153745.21      643.867    569498.82    83.014469     82.82654     82.82654 
 7470000    686.98591      -156637    -153795.5    221.94094    569498.82    82.951926    82.857758    82.857758 
 7500000    689.21301   -156613.01   -153762.29     614.0586    569498.82    82.889136    82.889136    82.889136 
 7530000    687.89692   -156607.35   -153762.08    563.71839    569498.82    82.826345    82.920549    82.920549 
 7560000    684.98125   -156571.39   -153738.18    652.20086    569498.82    82.763802    82.951873    82.951873 
 7590000    693.52479   -156611.04   -153742.49    606.76239    569498.82    82.701754    82.982985    82.982985 
 7620000    685.78643   -156587.79   -153751.24     474.0793    569498.82    82.640446    83.013761    83.013761 
 7650000    684.24861   -156628.33   -153798.15    292.46647    569498.82    82.580119    83.044077    83.044077 
 7680000    690.99724   -156596.45   -153738.35    499.35927    569498.82    82.521011    83.073813    83.073813 
 7710000    693.81144   -156595.64    -153725.9    652.87317    569498.82    82.463356    83.102849    83.102849 
 7740000    686.77231   -156600.04   -153759.41    635.40938    569498.82    82.407382    83.131068    83.131068 
 7770000    695.76891   -156606.57   -153728.73    569.59786    569498.82    82.353309    83.158355    83.158355 
 7800000       691.91   -156596.26   -153734.38    525.59852    569498.82     82.30135    83.184601    83.184601 
 7830000    691.90061   -156612.03    -153750.2    476.27346    569498.82    82.251712    83.209698    83.209698 
 7860000     691.9428   -156620.39   -153758.38    481.93722    569498.82    82.204589    83.233544    83.233544 
 7890000     694.9489   -156596.89   -153722.44    452.54014    569498.82    82.160167    83.256042    83.256042 
 7920000     683.7088   -156611.99   -153784.04    393.39397    569498.82    82.118622    83.277099    83.277099 
 7950000    688.95807   -156596.04   -153746.37    564.31655    569498.82    82.080119    83.296629    83.296629 
 7980000    690.01602   -156601.48   -153747.44     718.6093    569498.82    82.044808    83.314552    83.314552 
 8010000    692.96519   -156586.24      -153720    632.48863    569498.82    82.012829    83.330794    83.330794 
 8040000    695.50871    -156587.7   -153710.94    767.13332    569498.82    81.984309    83.345287    83.345287 
 8070000    689.36302   -156616.84    -153765.5    500.69472    569498.82    81.959359    83.357972    83.357972 
 8100000    691.56358   -156625.17   -153764.73    392.74592    569498.82    81.938079    83.368795    83.368795 
 8130000    682.86965   -156580.42   -153755.94    687.85915    569498.82    81.920552    83.377713    83.377713 
 8160000    689.18345    -156618.1    -153767.5    374.38809    569498.82    81.906848    83.384688    83.384688 
 8190000    690.00299      -156599   -153745.01     640.5897    569498.82    81.897021    83.389691    83.389691 
 8220000    691.10467   -156609.65    -153751.1    677.93136    569498.82    81.891109    83.392701    83.392701 
 8250000     691.8978   -156575.64   -153713.82    555.40894    569498.82    81.889136    83.393706    83.393706 
 8280000    687.84794   -156606.39   -153761.32    512.65236    569498.82    81.891109    83.392701    83.392701 
 8310000    688.46992   -156589.52   -153741.87    749.56649    569498.82    81.897021    83.389691    83.389691 
 8340000    687.39468   -156605.33   -153762.14    489.12472    569498.82    81.906848    83.384688    83.384688 
 8370000    690.40092   -156602.57   -153746.94    585.78118    569498.82    81.920552    83.377713    83.377713 
 8400000    689.09265   -156612.98   -153762.75    570.82058    569498.82    81.938079    83.368795    83.368795 
 8430000    690.91653   -156608.41   -153750.64    589.25405    569498.82    81.959359    83.357972    83.357972 
 8460000     685.1322   -156586.98   -153753.14    611.82651    569498.82    81.984309    83.345287    83.345287 
 8490000    692.27683   -156621.52   -153758.12    474.14907    569498.82    82.012829    83.330794    83.330794 
 8520000    691.13268   -156611.58   -153752.92    495.52202    569498.82    82.044808    83.314552    83.314552 
 8550000    692.85044   -156589.57    -153723.8    747.41018    569498.82    82.080119    83.296629    83.296629 
 8580000    684.51667    -156610.6    -153779.3     651.3063    569498.82    82.118622    83.277099    83.277099 
 8610000    691.95052   -156600.32   -153738.27    617.59647    569498.82    82.160167    83.256042    83.256042 
 8640000    692.99082   -156610.92   -153744.58    551.07363    569498.82    82.204589    83.233544    83.233544 
 8670000    693.66649   -156596.84    -153727.7    543.52549    569498.82    82.251712    83.209698    83.209698 
 8700000    686.62865   -156601.18   -153761.14    719.48559    569498.82     82.30135    83.184601    83.184601 
 8730000    692.89709   -156613.87   -153747.91    628.21173    569498.82    82.353309    83.158355    83.158355 
 8760000    690.47676   -156593.32   -153737.38    926.14313    569498.82    82.407382    83.131068    83.131068 
 8790000    690.03711   -156603.14   -153749.01    770.48791    569498.82    82.463356    83.102849    83.102849 
 8820000    690.68095   -156590.16   -153733.37    759.05941    569498.82    82.521011    83.073813    83.073813 
 8850000    691.29809   -156614.09   -153754.75    563.51716    569498.82    82.580119    83.044077    83.044077 
 8880000     687.9068   -156597.26   -153751.94    776.40742    569498.82    82.640446    83.013761    83.013761 
 8910000    689.25587   -156610.53   -153759.63     542.4746    569498.82    82.701754    82.982985    82.982985 
 8940000    694.19058   -156618.19   -153746.88     654.6961    569498.82    82.763802    82.951873    82.951873 
 8970000    685.50037    -156605.8   -153770.44    767.33047    569498.82    82.826345    82.920549    82.920549 
 9000000    690.22472   -156623.84   -153768.93    457.49736    569498.82    82.889136    82.889136    82.889136 
 9030000    686.91988    -156582.5   -153741.26    923.12431    569498.82    82.951926    82.857758    82.857758 
 9060000    693.45748   -156618.63   -153750.36    529.69316    569498.82    83.014469     82.82654     82.82654 
 9090000    692.13584   -156628.84   -153766.03    432.47828    569498.82    83.076517    82.795604    82.795604 
 9120000     693.8066   -156612.23   -153742.51    727.75056    569498.82    83.137825     82.76507     82.76507 
 9150000    691.65144   -156587.05   -153726.24    775.51604    569498.82    83.198153    82.735058    82.735058 
 9180000    686.44642   -156607.49   -153768.21    619.21596    569498.82     83.25726    82.705684    82.705684 
 9210000    694.12479   -156596.32   -153725.28    729.47149    569498.82    83.314915    82.677063    82.677063 
 9240000    691.12896   -156625.92   -153767.27    688.04736    569498.82    83.370889    82.649304    82.649304 
 9270000    689.61967   -156613.76   -153761.36    528.57775    569498.82    83.424962    82.622514    82.622514 
 9300000    687.89208   -156596.45    -153751.2    674.73768    569498.82    83.476921    82.596797    82.596797 
 9330000    692.53785   -156601.01   -153736.53    686.41651    569498.82     83.52656     82.57225     82.57225 
 9360000    685.71399   -156591.32   -153755.07    751.18635    569498.82    83.573683    82.548968    82.548968 
 9390000    689.63975   -156609.79    -153757.3    567.32554    569498.82    83.618104    82.527038    82.527038 
 9420000    691.06504   -156622.96   -153764.58    602.43429    569498.82    83.659649    82.506544    82.506544 
 9450000     688.6925   -156597.37   -153748.81    690.53861    569498.82    83.698153    82.487564    82.487564 
 9480000    692.32306   -156594.98   -153731.39    643.60735    569498.82    83.733464     82.47017     82.47017 
 9510000    690.07384   -156600.06   -153745.78    628.34495    569498.82    83.765442    82.454426    82.454426 
 9540000    692.47428    -156592.7   -153728.49    705.89105    569498.82    83.793963    82.440393    82.440393 
 9570000    688.43715    -156615.2   -153767.69    446.86925    569498.82    83.818912    82.428122    82.428122 
 9600000    689.43902   -156590.58   -153738.93    606.93141    569498.82    83.840192    82.417661    82.417661 
 9630000    689.03067   -156605.11   -153755.14    417.33349    569498.82    83.857719    82.409047    82.409047 
 9660000    690.39306   -156582.23   -153726.63    814.41482    569498.82    83.871423    82.402315    82.402315 
 9690000    690.24176   -156585.76   -153730.78    706.38425    569498.82     83.88125    82.397487    82.397487 
 9720000    686.79937   -156586.44    -153745.7    796.51813    569498.82    83.887162    82.394584    82.394584 
 9750000    689.85707    -156609.6   -153756.21    506.71813    569498.82    83.889136    82.393615    82.393615 
 9780000    687.53428   -156594.54   -153750.76    868.61023    569498.82    83.887162    82.394584    82.394584 
 9810000    685.77253   -156581.98   -153745.49    798.65439    569498.82     83.88125    82.397487    82.397487 
 9840000    689.43496   -156580.31   -153728.67    752.89599    569498.82    83.871423    82.402315    82.402315 
 9870000     692.4901   -156586.82   -153722.55    645.60223    569498.82    83.857719    82.409047    82.409047 
 9900000    690.96573   -156591.32   -153733.35    688.30106    569498.82    83.840192    82.417661    82.417661 
 9930000    682.53476   -156591.86   -153768.76    760.86015    569498.82    83.818912    82.428122    82.428122 
 9960000    685.87066   -156619.17   -153782.28     290.7645    569498.82    83.793963    82.440393    82.440393 
 9990000     691.8954   -156607.54   -153745.73    554.25571    569498.82    83.765442    82.454426    82.454426 
10020000    690.06572   -156616.58   -153762.33    543.32078    569498.82    83.733464     82.47017     82.47017 
10050000    695.64288   -156585.24   -153707.93    831.27099    569498.82    83.698153    82.487564    82.487564 
10080000     690.2441   -156619.45   -153764.47    411.51992    569498.82    83.659649    82.506544    82.506544 
10110000    692.94992    -156624.4   -153758.23     465.2496    569498.82    83.618104    82.527038    82.527038 
10140000    681.56798   -156608.95   -153789.85    469.96836    569498.82    83.573683    82.548968    82.548968 
10170000    695.58935   -156616.91   -153739.82    585.48473    569498.82     83.52656     82.57225     82.57225 
10200000    689.16414   -156605.68   -153755.17    597.84335    569498.82    83.476921    82.596797    82.596797 
10230000    686.87601   -156608.89   -153767.83    552.67216    569498.82    83.424962    82.622514    82.622514 
10260000    693.35251   -156618.13   -153750.29    457.67539    569498.82    83.370889    82.649304    82.649304 
10290000    689.83459   -156600.45   -153747.16      505.319    569498.82    83.314915    82.677063    82.677063 
10320000    688.49262   -156601.68   -153753.94    603.82943    569498.82     83.25726    82.705684    82.705684 
10350000    689.80577   -156614.23   -153761.06    621.88408    569498.82    83.198153    82.735058    82.735058 
10380000    691.36055   -156613.27   -153753.67    493.90133    569498.82    83.137825     82.76507     82.76507 
10410000    692.70451   -156614.91   -153749.75    429.30655    569498.82    83.076517    82.795604    82.795604 
10440000    693.26251   -156613.08   -153745.61    639.96678    569498.82    83.014469     82.82654     82.82654 
10470000    690.48829   -156617.87   -153761.88    304.94871    569498.82    82.951926    82.857758    82.857758 
10500000     690.7908   -156594.35    -153737.1    756.59194    569498.82    82.889136    82.889136    82.889136 
10530000    689.94422   -156604.35   -153750.61    526.86025    569498.82    82.826345    82.920549    82.920549 
10560000     692.2912   -156602.01   -153738.56    528.65305    569498.82    82.763802    82.951873    82.951873 
10590000    688.88636   -156611.47    -153762.1    529.99115    569498.82    82.701754    82.982985    82.982985 
10620000    691.66931   -156584.09   -153723.21    742.57631    569498.82    82.640446    83.013761    83.013761 
10650000    686.34478    -156607.5   -153768.64    580.58396    569498.82    82.580119    83.044077    83.044077 
10680000    693.78787   -156624.25   -153754.61    503.14736    569498.82    82.521011    83.073813    83.073813 
10710000    688.17777   -156597.42   -153750.98    561.33874    569498.82    82.463356    83.102849    83.102849 
10740000    691.48006   -156627.09      -153767     481.3515    569498.82    82.407382    83.131068    83.131068 
10770000     693.2223   -156612.49   -153745.19    571.53756    569498.82    82.353309    83.158355    83.158355 
10800000    688.70293   -156612.02   -153763.41    334.73848    569498.82     82.30135    83.184601    83.184601 
10830000    694.33627   -156608.16   -153736.25    369.71096    569498.82    82.251712    83.209698    83.209698 
10860000    686.33447   -156583.88   -153745.06     634.2059    569498.82    82.204589    83.233544    83.233544 
10890000     692.9786   -156607.71   -153741.42    502.01437    569498.82    82.160167    83.256042    83.256042 
10920000    694.85294   -156615.39   -153741.34    414.01235    569498.82    82.118622    83.277099    83.277099 
10950000    691.64309   -156599.14   -153738.37    587.20587    569498.82    82.080119    83.296629    83.296629 
10980000    693.52319   -156567.84   -153699.29    643.87274    569498.82    82.044808    83.314552    83.314552 
11010000    693.53861   -156605.76   -153737.15    492.03901    569498.82    82.012829    83.330794    83.330794 
11040000    693.44469   -156603.81   -153735.59    699.02106    569498.82    81.984309    83.345287    83.345287 
11070000    687.11117   -156625.25   -153783.23    356.35535    569498.82    81.959359    83.357972    83.357972 
11100000    692.17886   -156564.11   -153701.13    659.93949    569498.82    81.938079    83.368795    83.368795 
11130000    694.37255    -156582.9   -153710.84    632.24211    569498.82    81.920552    83.377713    83.377713 
11160000    685.93405   -156611.69   -153774.54    357.86541    569498.82    81.906848    83.384688    83.384688 
11190000    690.73592   -156604.23   -153747.21    549.13191    569498.82    81.897021    83.389691    83.389691 
11220000    690.54872   -156590.99   -153734.75    499.62566    569498.82    81.891109    83.392701    83.392701 
11250000    694.01722   -156584.95   -153714.36    798.13713    569498.82    81.889136    83.393706    83.393706 
11280000    694.70434   -156586.06   -153712.62    806.61666    569498.82    81.891109    83.392701    83.392701 
11310000    691.03072   -156587.74   -153729.51    698.59402    569498.82    81.897021    83.389691    83.389691 
11340000    685.51122   -156619.78   -153784.38     516.3173    569498.82    81.906848    83.384688    83.384688 
11370000    691.79253   -156614.53   -153753.14    525.13151    569498.82    81.920552    83.377713    83.377713 
11400000      690.653   -156611.65   -153754.97    669.97483    569498.82    81.938079    83.368795    83.368795 
11430000     687.6389   -156620.57   -153776.36    465.22319    569498.82    81.959359    83.357972    83.357972 
11460000    691.00973   -156607.38   -153749.23    543.27996    569498.82    81.984309    83.345287    83.345287 
11490000    689.94826   -156611.24   -153757.48    576.72978    569498.82    82.012829    83.330794    83.330794 
11520000    695.59263   -156596.49   -153719.38    666.88195    569498.82    82.044808    83.314552    83.314552 
11550000    692.90888   -156619.74   -153753.73    648.33331    569498.82    82.080119    83.296629    83.296629 
11580000    694.09744   -156614.12    -153743.2     582.7723    569498.82    82.118622    83.277099    83.277099 
11610000    694.15546   -156610.44   -153739.28    591.58441    569498.82    82.160167    83.256042    83.256042 
11640000    683.85315   -156608.47   -153779.92    300.52912    569498.82    82.204589    83.233544    83.233544 
11670000    687.05373   -156605.75   -153763.96    672.84517    569498.82    82.251712    83.209698    83.209698 
11700000     688.5754   -156600.35   -153752.27    736.35651    569498.82     82.30135    83.184601    83.184601 
11730000    690.36111   -156611.87    -153756.4    373.57624    569498.82    82.353309    83.158355    83.158355 
11760000    690.56654   -156650.08   -153793.76    429.11469    569498.82    82.407382    83.131068    83.131068 
11790000    691.39548   -156607.63   -153747.88    677.08857    569498.82    82.463356    83.102849    83.102849 
11820000    691.73544   -156620.07   -153758.92    777.78697    569498.82    82.521011    83.073813    83.073813 
11850000    692.74827    -156629.7   -153764.36    453.43939    569498.82    82.580119    83.044077    83.044077 
11880000    690.13646   -156618.25   -153763.72    488.21959    569498.82    82.640446    83.013761    83.013761 
11910000    692.23797   -156604.68   -153741.45    623.14313    569498.82    82.701754    82.982985    82.982985 
11940000    689.00792   -156606.34   -153756.46    623.08607    569498.82    82.763802    82.951873    82.951873 
11970000    690.72345   -156631.42   -153774.45     418.9101    569498.82    82.826345    82.920549    82.920549 
12000000    688.26176   -156626.75   -153779.96    338.55307    569498.82    82.889136    82.889136    82.889136 
12030000    694.95997   -156620.47   -153745.98     557.1247    569498.82    82.951926    82.857758    82.857758 
12060000    687.06957    -156640.5   -153798.65    207.11478    569498.82    83.014469     82.82654     82.82654 
12090000    691.22763   -156601.18   -153742.13    651.60851    569498.82    83.076517    82.795604    82.795604 
12120000    686.33132   -156607.55   -153768.75    497.93778    569498.82    83.137825     82.76507     82.76507 
12150000    697.77707    -156625.2   -153739.06    564.59062    569498.82    83.198153    82.735058    82.735058 
12180000    690.07893   -156595.66   -153741.36    620.76806    569498.82     83.25726    82.705684    82.705684 
12210000    694.92068   -156623.78   -153749.45    413.92775    569498.82    83.314915    82.677063    82.677063 
12240000    691.53379    -156650.5   -153790.18    141.63708    569498.82    83.370889    82.649304    82.649304 
12270000    687.30965   -156603.99   -153761.15     584.0205    569498.82    83.424962    82.622514    82.622514 
12300000    692.14128   -156632.29   -153769.46    357.57055    569498.82    83.476921    82.596797    82.596797 
12330000    695.61452   -156605.67   -153728.47    568.66426    569498.82     83.52656     82.57225     82.57225 
12360000    688.26335   -156586.24   -153739.45     777.4224    569498.82    83.573683    82.548968    82.548968 
12390000    690.68609   -156600.76   -153743.95    533.40556    569498.82    83.618104    82.527038    82.527038 
12420000    688.26129   -156609.13   -153762.34    625.39802    569498.82    83.659649    82.506544    82.506544 
12450000    690.92975   -156600.02    -153742.2    652.24753    569498.82    83.698153    82.487564    82.487564 
12480000    686.95176   -156607.97    -153766.6    591.03341    569498.82    83.733464     82.47017     82.47017 
12510000     687.3792   -156602.37   -153759.23    474.43032    569498.82    83.765442    82.454426    82.454426 
12540000    692.52269   -156624.24   -153759.83    371.37466    569498.82    83.793963    82.440393    82.440393 
12570000    693.83089   -156578.02    -153708.2     934.7044    569498.82    83.818912    82.428122    82.428122 
12600000    693.30631   -156606.53   -153738.88    391.47109    569498.82    83.840192    82.417661    82.417661 
12630000    691.47316   -156601.31   -153741.24    513.48352    569498.82    83.857719    82.409047    82.409047 
12660000    696.60465   -156591.26   -153709.97    711.93141    569498.82    83.871423    82.402315    82.402315 
12690000    694.07851    -156599.6   -153728.76    703.96482    569498.82     83.88125    82.397487    82.397487 
12720000    689.49232   -156604.78    -153752.9      562.178    569498.82    83.887162    82.394584    82.394584 
12750000    693.46818   -156618.47   -153750.15    434.32217    569498.82    83.889136    82.393615    82.393615 
12780000    686.42711   -156619.56   -153780.37    298.65604    569498.82    83.887162    82.394584    82.394584 
12810000    695.06229   -156592.04   -153717.13    828.61142    569498.82     83.88125    82.397487    82.397487 
12840000    688.00176   -156589.82   -153744.11    430.61503    569498.82    83.871423    82.402315    82.402315 
12870000    694.11696   -156590.52   -153719.51    623.04924    569498.82    83.857719    82.409047    82.409047 
12900000    693.80167   -156600.63   -153730.93    636.73233    569498.82    83.840192    82.417661    82.417661 
12930000    689.43715   -156619.58   -153767.93    519.13865    569498.82    83.818912    82.428122    82.428122 
12960000    689.52912   -156604.94   -153752.92    669.36884    569498.82    83.793963    82.440393    82.440393 
12990000    689.56936   -156595.34   -153743.15    706.24627    569498.82    83.765442    82.454426    82.454426 
13020000    684.79527   -156615.48   -153783.04    441.54432    569498.82    83.733464     82.47017     82.47017 
13050000     690.1055   -156607.59   -153753.18    623.12883    569498.82    83.698153    82.487564    82.487564 
13080000    695.81119   -156604.43   -153726.42    739.04309    569498.82    83.659649    82.506544    82.506544 
13110000     689.1004   -156605.06    -153754.8    629.72222    569498.82    83.618104    82.527038    82.527038 
13140000    687.20285   -156592.33   -153749.92    537.75694    569498.82    83.573683    82.548968    82.548968 
13170000    686.49099   -156619.26    -153779.8    609.42333    569498.82     83.52656     82.57225     82.57225 
13200000    694.04618   -156594.26   -153723.55    738.42618    569498.82    83.476921    82.596797    82.596797 
13230000    689.38195   -156618.05   -153766.64    501.94425    569498.82    83.424962    82.622514    82.622514 
13260000     693.0111   -156585.72   -153719.29    563.09664    569498.82    83.370889    82.649304    82.649304 
13290000    694.30535   -156628.81   -153757.03    401.04999    569498.82    83.314915    82.677063    82.677063 
13320000    692.22699   -156621.15   -153757.96    608.98937    569498.82     83.25726    82.705684    82.705684 
13350000      687.198    -156617.8   -153775.42    471.04721    569498.82    83.198153    82.735058    82.735058 
13380000    688.86609   -156625.45   -153776.16    450.33247    569498.82    83.137825     82.76507     82.76507 
13410000    689.48011   -156632.86   -153781.04    309.60978    569498.82    83.076517    82.795604    82.795604 
13440000    696.65027   -156611.19    -153729.7    596.45859    569498.82    83.014469     82.82654     82.82654 
13470000    691.37766   -156612.92   -153753.25    484.04126    569498.82    82.951926    82.857758    82.857758 
13500000    689.33973   -156619.09   -153767.85    419.75378    569498.82    82.889136    82.889136    82.889136 
13530000    691.12612   -156610.07   -153751.44    395.79156    569498.82    82.826345    82.920549    82.920549 
13560000    689.19998   -156602.14   -153751.47    423.52809    569498.82    82.763802    82.951873    82.951873 
13590000    694.65363    -156625.3   -153752.07    490.90802    569498.82    82.701754    82.982985    82.982985 
13620000    689.65399   -156652.55   -153800.01    78.923185    569498.82    82.640446    83.013761    83.013761 
13650000    688.37204   -156611.39   -153764.15    503.44123    569498.82    82.580119    83.044077    83.044077 
13680000    689.07995   -156647.83   -153797.66    282.26751    569498.82    82.521011    83.073813    83.073813 
13710000    691.99472      -156604   -153741.78    643.97117    569498.82    82.463356    83.102849    83.102849 
13740000    688.46304   -156621.88   -153774.26    464.99286    569498.82    82.407382    83.131068    83.131068 
13770000    688.36973   -156601.45   -153754.22    411.53469    569498.82    82.353309    83.158355    83.158355 
13800000    689.55677   -156618.63   -153766.49    500.10776    569498.82     82.30135    83.184601    83.184601 
13830000    692.24715   -156643.02   -153779.75    311.98373    569498.82    82.251712    83.209698    83.209698 
13860000    691.09163    -156625.2   -153766.71    440.66847    569498.82    82.204589    83.233544    83.233544 
13890000    689.10877   -156611.99    -153761.7    602.10795    569498.82    82.160167    83.256042    83.256042 
13920000    691.82093   -156608.73   -153747.23    679.21538    569498.82    82.118622    83.277099    83.277099 
13950000     690.4922   -156634.99   -153778.98    262.53111    569498.82    82.080119    83.296629    83.296629 
13980000    689.12838   -156591.32   -153740.95    669.57553    569498.82    82.044808    83.314552    83.314552 
14010000    691.52062   -156625.33   -153765.07    533.24263    569498.82    82.012829    83.330794    83.330794 
14040000    692.65799   -156623.04   -153758.07    461.48568    569498.82    81.984309    83.345287    83.345287 
14070000    695.46653   -156616.09    -153739.5    553.79674    569498.82    81.959359    83.357972    83.357972 
14100000    689.73485   -156614.36   -153761.49     415.0631    569498.82    81.938079    83.368795    83.368795 
14130000    687.82431   -156654.43   -153809.45    142.27938    569498.82    81.920552    83.377713    83.377713 
14160000    687.91633   -156617.48   -153772.12    448.60249    569498.82    81.906848    83.384688    83.384688 
14190000     687.0524   -156588.62   -153746.83    792.64128    569498.82    81.897021    83.389691    83.389691 
14220000    686.44325   -156618.72   -153779.46    503.91502    569498.82    81.891109    83.392701    83.392701 
14250000    688.35799    -156619.4   -153772.21    317.74589    569498.82    81.889136    83.393706    83.393706 
14280000    689.64894   -156613.17   -153760.65     529.5428    569498.82    81.891109    83.392701    83.392701 
14310000    694.59122   -156600.99   -153728.02    547.93032    569498.82    81.897021    83.389691    83.389691 
14340000    687.61256   -156615.92   -153771.82    463.63179    569498.82    81.906848    83.384688    83.384688 
14370000    691.42291   -156620.29   -153760.43     521.9134    569498.82    81.920552    83.377713    83.377713 
14400000    689.97504   -156599.08   -153745.21    637.03562    569498.82    81.938079    83.368795    83.368795 
14430000    691.32784   -156623.75   -153764.28    462.83499    569498.82    81.959359    83.357972    83.357972 
14460000     691.1017   -156646.44   -153787.91    283.61652    569498.82    81.984309    83.345287    83.345287 
14490000    692.32346    -156615.3   -153751.71    528.35444    569498.82    82.012829    83.330794    83.330794 
14520000    687.13204   -156638.64   -153796.53    399.37766    569498.82    82.044808    83.314552    83.314552 
14550000    691.29978   -156641.75    -153782.4    302.63349    569498.82    82.080119    83.296629    83.296629 
14580000    692.28968   -156641.19   -153777.74    389.64207    569498.82    82.118622    83.277099    83.277099 
14610000     691.2615   -156640.57   -153781.37    371.30975    569498.82    82.160167    83.256042    83.256042 
14640000     691.4642   -156646.51   -153786.48    315.70831    569498.82    82.204589    83.233544    83.233544 
14670000    693.35081   -156631.88   -153764.05    400.56054    569498.82    82.251712    83.209698    83.209698 
14700000    690.20395   -156642.19   -153787.37    351.30239    569498.82     82.30135    83.184601    83.184601 
14730000    692.03233   -156623.52   -153761.14     409.8993    569498.82    82.353309    83.158355    83.158355 
14760000     691.6025   -156605.47   -153744.87    479.88109    569498.82    82.407382    83.131068    83.131068 
14790000    691.89316   -156618.77   -153756.96    567.74278    569498.82    82.463356    83.102849    83.102849 
14820000    687.84819   -156600.79   -153755.72    656.94353    569498.82    82.521011    83.073813    83.073813 
14850000    688.07874   -156601.57   -153755.54     610.0613    569498.82    82.580119    83.044077    83.044077 
14880000    695.28253   -156641.36   -153765.54    406.44393    569498.82    82.640446    83.013761    83.013761 
14910000    684.69185    -156611.8   -153779.79    469.43146    569498.82    82.701754    82.982985    82.982985 
14940000    691.54733   -156605.24   -153744.87    443.86782    569498.82    82.763802    82.951873    82.951873 
14970000    689.25054   -156625.14   -153774.26    389.04336    569498.82    82.826345    82.920549    82.920549 
15000000    687.91925   -156664.74   -153819.38    96.927835    569498.82    82.889136    82.889136    82.889136 
15030000    691.16282    -156602.8   -153744.02    565.15746    569498.82    82.951926    82.857758    82.857758 
15060000    693.08559   -156605.04    -153738.3    620.24503    569498.82    83.014469     82.82654     82.82654 
15090000    693.15109   -156620.48   -153753.47    353.43045    569498.82    83.076517    82.795604    82.795604 
15120000    682.44682   -156596.35   -153773.62    761.99377    569498.82    83.137825     82.76507     82.76507 
15150000    682.83706   -156620.37   -153796.02     546.0911    569498.82    83.198153    82.735058    82.735058 
15180000     689.0271   -156608.23   -153758.28    444.91941    569498.82     83.25726    82.705684    82.705684 
15210000    694.04076   -156611.86   -153741.17    652.14216    569498.82    83.314915    82.677063    82.677063 
15240000    685.48689   -156623.91    -153788.6    500.63987    569498.82    83.370889    82.649304    82.649304 
15270000    690.37471   -156626.12    -153770.6    495.76887    569498.82    83.424962    82.622514    82.622514 
15300000    690.78609   -156615.81   -153758.58    470.88533    569498.82    83.476921    82.596797    82.596797 
15330000     689.0461   -156633.29   -153783.26     423.4654    569498.82     83.52656     82.57225     82.57225 
15360000    691.71792   -156580.36   -153719.28    697.89908    569498.82    83.573683    82.548968    82.548968 
15390000    688.68519   -156602.79   -153754.25    592.25317    569498.82    83.618104    82.527038    82.527038 
15420000    693.93514   -156595.13   -153724.88    567.03561    569498.82    83.659649    82.506544    82.506544 
15450000    688.53551   -156611.67   -153763.75     421.6691    569498.82    83.698153    82.487564    82.487564 
15480000    694.66503   -156610.98   -153737.71      685.505    569498.82    83.733464     82.47017     82.47017 
15510000    695.58959    -156608.8   -153731.71     571.7902    569498.82    83.765442    82.454426    82.454426 
15540000    688.19587   -156610.17   -153763.66    494.13539    569498.82    83.793963    82.440393    82.440393 
15570000    686.24746   -156609.97   -153771.52    441.54508    569498.82    83.818912    82.428122    82.428122 
15600000    692.41561   -156582.99   -153719.02    774.14123    569498.82    83.840192    82.417661    82.417661 
15630000    695.23447   -156589.32   -153713.69    702.46354    569498.82    83.857719    82.409047    82.409047 
15660000     691.4226   -156606.43   -153746.57    448.17479    569498.82    83.871423    82.402315    82.402315 
15690000    689.63326   -156601.03   -153748.57    540.00293    569498.82     83.88125    82.397487    82.397487 
15720000    691.44623   -156596.52   -153736.56    458.35591    569498.82    83.887162    82.394584    82.394584 
15750000    689.44002   -156587.66      -153736    634.89212    569498.82    83.889136    82.393615    82.393615 
15780000    689.98525   -156592.57   -153738.65    599.50546    569498.82    83.887162    82.394584    82.394584 
15810000    692.20948   -156599.93   -153736.82    676.96662    569498.82     83.88125    82.397487    82.397487 
15840000    689.81566   -156616.34   -153763.13    401.85495    569498.82    83.871423    82.402315    82.402315 
15870000    692.15211   -156601.74   -153738.86    615.87364    569498.82    83.857719    82.409047    82.409047 
15900000    687.17553   -156607.42   -153765.12    478.32367    569498.82    83.840192    82.417661    82.417661 
15930000    691.27676   -156584.71   -153725.45    634.28426    569498.82    83.818912    82.428122    82.428122 
15960000     689.9909   -156625.34    -153771.4    253.09724    569498.82    83.793963    82.440393    82.440393 
15990000    692.29056   -156641.86   -153778.41     187.9261    569498.82    83.765442    82.454426    82.454426 
16020000    689.61603   -156590.01   -153737.62    506.04071    569498.82    83.733464     82.47017     82.47017 
16050000    690.02271   -156637.74   -153783.67     246.1824    569498.82    83.698153    82.487564    82.487564 
16080000    692.22844   -156615.15   -153751.95    475.45643    569498.82    83.659649    82.506544    82.506544 
16110000    686.69687    -156605.1   -153764.79    338.85648    569498.82    83.618104    82.527038    82.527038 
16140000    687.68483    -156620.8    -153776.4    271.30873    569498.82    83.573683    82.548968    82.548968 
16170000    693.47231   -156610.95   -153742.61    587.11571    569498.82     83.52656     82.57225     82.57225 
16200000     692.4407   -156607.78   -153743.71    479.42036    569498.82    83.476921    82.596797    82.596797 
16230000    691.01121   -156603.24   -153745.09     562.7456    569498.82    83.424962    82.622514    82.622514 
16260000    692.93597   -156614.71   -153748.59    346.51894    569498.82    83.370889    82.649304    82.649304 
16290000    685.72667   -156626.79   -153790.49    327.25148    569498.82    83.314915    82.677063    82.677063 
16320000     689.9003    -156617.9   -153764.34    432.81659    569498.82     83.25726    82.705684    82.705684 
16350000    687.56918   -156597.74   -153753.82    406.26495    569498.82    83.198153    82.735058    82.735058 
16380000    689.97004   -156616.49   -153762.64     247.9782    569498.82    83.137825     82.76507     82.76507 
16410000    690.56752   -156608.12    -153751.8    550.64274    569498.82    83.076517    82.795604    82.795604 
16440000    685.23914   -156604.04   -153769.76    348.78295    569498.82    83.014469     82.82654     82.82654 
16470000    685.98379   -156590.18   -153752.81     593.0596    569498.82    82.951926    82.857758    82.857758 
16500000    695.41838   -156587.75   -153711.37    735.21023    569498.82    82.889136    82.889136    82.889136 
16530000    693.55001   -156595.96    -153727.3    644.60092    569498.82    82.826345    82.920549    82.920549 
16560000    691.06962   -156607.85   -153749.45    319.29224    569498.82    82.763802    82.951873    82.951873 
16590000    696.70581   -156594.87   -153713.16    697.66468    569498.82    82.701754    82.982985    82.982985 
16620000    692.46832   -156606.77   -153742.59    539.33089    569498.82    82.640446    83.013761    83.013761 
16650000    693.50415   -156597.68   -153729.21    704.54101    569498.82    82.580119    83.044077    83.044077 
16680000    694.32959   -156601.38    -153729.5    483.39984    569498.82    82.521011    83.073813    83.073813 
16710000    688.65097   -156593.56   -153745.17    657.96744    569498.82    82.463356    83.102849    83.102849 
16740000    685.49879   -156587.53   -153752.17    780.69347    569498.82    82.407382    83.131068    83.131068 
16770000    688.81621   -156625.26   -153776.18    421.69139    569498.82    82.353309    83.158355    83.158355 
16800000     690.0627    -156590.1   -153735.87    551.71123    569498.82     82.30135    83.184601    83.184601 
16830000    688.79227   -156577.55   -153728.57     720.9138    569498.82    82.251712    83.209698    83.209698 
16860000    686.76762   -156558.57   -153717.97    570.95428    569498.82    82.204589    83.233544    83.233544 
16890000     690.8623   -156583.59   -153726.05     778.3003    569498.82    82.160167    83.256042    83.256042 
16920000     696.5144   -156585.59   -153704.67    743.22317    569498.82    82.118622    83.277099    83.277099 
16950000    691.66535   -156591.38   -153730.52    691.57934    569498.82    82.080119    83.296629    83.296629 
16980000    688.70494   -156582.07   -153733.45     781.3178    569498.82    82.044808    83.314552    83.314552 
17010000    683.78188   -156626.31   -153798.05    274.99528    569498.82    82.012829    83.330794    83.330794 
17040000    692.55436   -156595.58   -153731.04    507.24433    569498.82    81.984309    83.345287    83.345287 
17070000    692.54061   -156591.89    -153727.4    712.67415    569498.82    81.959359    83.357972    83.357972 
17100000     685.7945   -156593.27   -153756.69    570.14858    569498.82    81.938079    83.368795    83.368795 
17130000    689.25155    -156595.3   -153744.42    583.00967    569498.82    81.920552    83.377713    83.377713 
17160000    692.79051   -156603.88   -153738.37    543.57761    569498.82    81.906848    83.384688    83.384688 
17190000    688.54242   -156596.97   -153749.02    597.46223    569498.82    81.897021    83.389691    83.389691 
17220000    691.53408   -156633.63   -153773.31    523.62456    569498.82    81.891109    83.392701    83.392701 
17250000    696.39242   -156585.12    -153704.7    578.63606    569498.82    81.889136    83.393706    83.393706 
17280000    686.81287   -156596.09    -153755.3    391.09744    569498.82    81.891109    83.392701    83.392701 
17310000    689.67637   -156593.81   -153741.18    705.11724    569498.82    81.897021    83.389691    83.389691 
17340000    692.30091   -156588.25   -153724.76    451.90212    569498.82    81.906848    83.384688    83.384688 
17370000     692.0233   -156602.27   -153739.92    689.34004    569498.82    81.920552    83.377713    83.377713 
17400000    687.57079   -156614.29   -153770.36    457.24435    569498.82    81.938079    83.368795    83.368795 
17430000    689.33591   -156590.71   -153739.48    591.49765    569498.82    81.959359    83.357972    83.357972 
17460000    691.71177   -156601.28   -153740.23    506.81007    569498.82    81.984309    83.345287    83.345287 
17490000    692.03384   -156626.83   -153764.44    488.86821    569498.82    82.012829    83.330794    83.330794 
17520000    691.59667   -156569.09   -153708.52    905.45006    569498.82    82.044808    83.314552    83.314552 
17550000    690.96426   -156610.84   -153752.88    521.65932    569498.82    82.080119    83.296629    83.296629 
17580000    692.27457   -156592.79   -153729.41    744.14845    569498.82    82.118622    83.277099    83.277099 
17610000    690.03825   -156606.47   -153752.34    546.73578    569498.82    82.160167    83.256042    83.256042 
17640000    687.48803   -156591.63   -153748.05    651.38942    569498.82    82.204589    83.233544    83.233544 
17670000    688.65871   -156626.51   -153778.08    438.18466    569498.82    82.251712    83.209698    83.209698 
17700000    687.89102   -156598.32   -153753.07    508.31695    569498.82     82.30135    83.184601    83.184601 
17730000    689.99348   -156603.95   -153750.01     458.3619    569498.82    82.353309    83.158355    83.158355 
17760000    695.97878   -156608.71      -153730    569.42161    569498.82    82.407382    83.131068    83.131068 
17790000    688.44348   -156613.61   -153766.07     356.4361    569498.82    82.463356    83.102849    83.102849 
17820000    693.05015   -156613.07   -153746.48    465.02957    569498.82    82.521011    83.073813    83.073813 
17850000    692.18336   -156608.96   -153745.95    553.84754    569498.82    82.580119    83.044077    83.044077 
17880000     687.4405    -156609.2   -153765.82    478.35532    569498.82    82.640446    83.013761    83.013761 
17910000    685.12954   -156597.61   -153763.78    675.44372    569498.82    82.701754    82.982985    82.982985 
17940000    697.19512   -156613.46   -153729.73     733.2776    569498.82    82.763802    82.951873    82.951873 
17970000    690.79642   -156633.76   -153776.49    363.40572    569498.82    82.826345    82.920549    82.920549 
18000000    690.37374   -156615.95   -153760.43     466.7271    569498.82    82.889136    82.889136    82.889136 
18030000    693.08776   -156623.45   -153756.71    459.58202    569498.82    82.951926    82.857758    82.857758 
18060000    690.67613   -156614.53   -153757.76    577.18397    569498.82    83.014469     82.82654     82.82654 
18090000    692.79444    -156602.3   -153736.77    433.06536    569498.82    83.076517    82.795604    82.795604 
18120000     688.6938   -156617.88    -153769.3    541.13776    569498.82    83.137825     82.76507     82.76507 
18150000    691.29491   -156617.35   -153758.02    407.91977    569498.82    83.198153    82.735058    82.735058 
18180000    692.15034   -156605.99   -153743.12    581.57525    569498.82     83.25726    82.705684    82.705684 
18210000    689.83366   -156616.86   -153763.57    526.56041    569498.82    83.314915    82.677063    82.677063 
18240000    691.74323   -156607.95   -153746.76    548.84454    569498.82    83.370889    82.649304    82.649304 
18270000    688.81743   -156602.38    -153753.3    537.17661    569498.82    83.424962    82.622514    82.622514 
18300000    686.49795   -156592.14   -153752.65    693.06149    569498.82    83.476921    82.596797    82.596797 
18330000    681.51894   -156596.38   -153777.48    622.92205    569498.82     83.52656     82.57225     82.57225 
18360000    690.84039   -156597.55   -153740.09    611.94266    569498.82    83.573683    82.548968    82.548968 
18390000    688.59436   -156618.09   -153769.93    459.07252    569498.82    83.618104    82.527038    82.527038 
18420000    685.41194   -156583.82   -153748.82    950.15521    569498.82    83.659649    82.506544    82.506544 
18450000     688.8547   -156605.66   -153756.43    819.03755    569498.82    83.698153    82.487564    82.487564 
18480000    690.91953   -156590.86   -153733.08    792.79182    569498.82    83.733464     82.47017     82.47017 
18510000    687.41136   -156613.85   -153770.59    441.13254    569498.82    83.765442    82.454426    82.454426 
18540000    689.70876   -156612.06   -153759.29    646.20461    569498.82    83.793963    82.440393    82.440393 
18570000    688.80351   -156610.18   -153761.15    565.80104    569498.82    83.818912    82.428122    82.428122 
18600000    685.84974   -156581.99   -153745.18    834.89905    569498.82    83.840192    82.417661    82.417661 
18630000    692.07585   -156594.58   -153732.02    677.25364    569498.82    83.857719    82.409047    82.409047 
18660000    685.55848   -156565.22   -153729.61    985.59958    569498.82    83.871423    82.402315    82.402315 
18690000    689.42722   -156600.38   -153748.77    692.28654    569498.82     83.88125    82.397487    82.397487 
18720000    687.55835   -156573.02   -153729.15    970.20942    569498.82    83.887162    82.394584    82.394584 
18750000    694.72273    -156594.8   -153721.29    838.81931    569498.82    83.889136    82.393615    82.393615 
18780000    693.64963   -156605.82   -153736.75    719.69546    569498.82    83.887162    82.394584    82.394584 
18810000    691.99178   -156623.12   -153760.91    549.25723    569498.82     83.88125    82.397487    82.397487 
18840000    688.80922   -156576.24   -153727.19    832.54007    569498.82    83.871423    82.402315    82.402315 
18870000    689.19957   -156610.59   -153759.92    473.89327    569498.82    83.857719    82.409047    82.409047 
18900000    690.09501   -156592.32   -153737.95    757.43379    569498.82    83.840192    82.417661    82.417661 
18930000    683.53515   -156586.89   -153759.65    931.82724    569498.82    83.818912    82.428122    82.428122 
18960000    690.08447   -156619.57   -153765.25    597.57739    569498.82    83.793963    82.440393    82.440393 
18990000     694.5997   -156599.42   -153726.42     682.7458    569498.82    83.765442    82.454426    82.454426 
19020000    687.68618   -156623.07   -153778.66    421.83705    569498.82    83.733464     82.47017     82.47017 
19050000    695.13594   -156636.33   -153761.11    434.67814    569498.82    83.698153    82.487564    82.487564 
19080000    686.88467   -156607.91   -153766.82    559.90082    569498.82    83.659649    82.506544    82.506544 
19110000    689.43324   -156632.58   -153780.95    566.01294    569498.82    83.618104    82.527038    82.527038 
19140000    691.48594   -156615.04   -153754.92    673.08473    569498.82    83.573683    82.548968    82.548968 
19170000    691.31626   -156630.65   -153771.23    455.45594    569498.82     83.52656     82.57225     82.57225 
19200000    689.86896   -156624.08   -153770.64    566.33242    569498.82    83.476921    82.596797    82.596797 
19230000    692.26125   -156641.14   -153777.81    512.87103    569498.82    83.424962    82.622514    82.622514 
19260000    688.40874   -156618.71   -153771.32    454.22633    569498.82    83.370889    82.649304    82.649304 
19290000    693.27016   -156621.42   -153753.92    550.48724    569498.82    83.314915    82.677063    82.677063 
19320000    690.51539   -156617.05   -153760.94    531.56324    569498.82     83.25726    82.705684    82.705684 
19350000    690.93397   -156598.52   -153740.69    580.55207    569498.82    83.198153    82.735058    82.735058 
19380000    694.91025   -156631.74   -153757.46    519.06012    569498.82    83.137825     82.76507     82.76507 
19410000    689.66807   -156628.36   -153775.76    514.59674    569498.82    83.076517    82.795604    82.795604 
19440000    690.00382   -156627.81   -153773.82    343.72303    569498.82    83.014469     82.82654     82.82654 
19470000     694.0879   -156625.63   -153754.74    578.89145    569498.82    82.951926    82.857758    82.857758 
19500000    687.32985   -156632.77   -153789.84    407.94308    569498.82    82.889136    82.889136    82.889136 
19530000    690.13265   -156602.35   -153747.82    502.45322    569498.82    82.826345    82.920549    82.920549 
19560000    690.59944   -156588.12   -153731.66    720.47613    569498.82    82.763802    82.951873    82.951873 
19590000    687.78147   -156603.69   -153758.89    529.03508    569498.82    82.701754    82.982985    82.982985 
19620000    686.48176   -156613.83   -153774.41    428.60881    569498.82    82.640446    83.013761    83.013761 
19650000    694.16518    -156618.9    -153747.7    422.61996    569498.82    82.580119    83.044077    83.044077 
19680000    694.11097   -156631.57    -153760.6    513.28272    569498.82    82.521011    83.073813    83.073813 
19710000     689.7264   -156610.65    -153757.8    486.37396    569498.82    82.463356    83.102849    83.102849 
19740000    689.33712   -156607.93   -153756.69    544.28687    569498.82    82.407382    83.131068    83.131068 
19770000    693.36484   -156614.93   -153747.04     523.4643    569498.82    82.353309    83.158355    83.158355 
19800000    689.02141   -156595.13    -153745.2    789.37543    569498.82     82.30135    83.184601    83.184601 
19830000    694.07475   -156625.57   -153754.74    564.51679    569498.82    82.251712    83.209698    83.209698 
19860000    690.33266   -156602.87   -153747.52    504.27751    569498.82    82.204589    83.233544    83.233544 
19890000    684.48445   -156564.24   -153733.08    652.35071    569498.82    82.160167    83.256042    83.256042 
19920000    692.48147   -156623.03   -153758.79    424.46007    569498.82    82.118622    83.277099    83.277099 
19950000    694.15463   -156608.66    -153737.5    570.53403    569498.82    82.080119    83.296629    83.296629 
19980000    692.37309   -156587.03   -153723.24    593.59557    569498.82    82.044808    83.314552    83.314552 
20010000    688.09021   -156615.23   -153769.15    645.66766    569498.82    82.012829    83.330794    83.330794 
20040000    696.16377   -156602.33   -153722.86    604.94386    569498.82    81.984309    83.345287    83.345287 
20070000    684.85278    -156587.6   -153754.92    656.72268    569498.82    81.959359    83.357972    83.357972 
20100000    691.17551   -156592.69   -153733.85    751.15823    569498.82    81.938079    83.368795    83.368795 
20130000    682.39468   -156599.55   -153777.04    333.84341    569498.82    81.920552    83.377713    83.377713 
20160000    691.42771    -156617.9   -153758.02    514.03373    569498.82    81.906848    83.384688    83.384688 
20190000    687.29349    -156592.1   -153749.32    739.80873    569498.82    81.897021    83.389691    83.389691 
20220000    689.17154   -156615.53   -153764.98    434.85878    569498.82    81.891109    83.392701    83.392701 
20250000    695.12804   -156595.25   -153720.07    635.24094    569498.82    81.889136    83.393706    83.393706 
20280000    692.48457   -156617.97   -153753.71    589.64213    569498.82    81.891109    83.392701    83.392701 
20310000    692.64621   -156629.12    -153764.2    594.78605    569498.82    81.897021    83.389691    83.389691 
20340000    687.24615   -156601.07   -153758.49    512.48507    569498.82    81.906848    83.384688    83.384688 
20370000    692.25049   -156611.22   -153747.93    687.95497    569498.82    81.920552    83.377713    83.377713 
20400000    690.90276   -156630.88   -153773.17    394.74868    569498.82    81.938079    83.368795    83.368795 
20430000    692.13935   -156644.87   -153782.05    152.09713    569498.82    81.959359    83.357972    83.357972 
20460000     687.2322   -156611.34   -153768.81    494.72762    569498.82    81.984309    83.345287    83.345287 
20490000    690.03289   -156615.28   -153761.17    425.81524    569498.82    82.012829    83.330794    83.330794 
[...]
25140000    690.84563   -156633.47   -153775.99    377.41294    569498.82    83.573683    82.548968    82.548968 
25170000    691.16994   -156619.45   -153760.63    380.71085    569498.82     83.52656     82.57225     82.57225 
25200000     688.9549   -156602.63   -153752.98    449.85953    569498.82    83.476921    82.596797    82.596797 
25230000     689.8171   -156632.05   -153778.83    385.58733    569498.82    83.424962    82.622514    82.622514 
25260000    684.51796   -156657.29   -153825.99    225.53224    569498.82    83.370889    82.649304    82.649304 
25290000    690.88674   -156637.09   -153779.45    284.77834    569498.82    83.314915    82.677063    82.677063 
25320000    691.69506   -156640.87   -153779.88    349.75001    569498.82     83.25726    82.705684    82.705684 
25350000    692.61143   -156610.73   -153745.95    552.34924    569498.82    83.198153    82.735058    82.735058 
25380000    691.72037    -156606.7   -153745.61    543.23683    569498.82    83.137825     82.76507     82.76507 
25410000    691.39844   -156612.16    -153752.4    381.41574    569498.82    83.076517    82.795604    82.795604 
25440000    692.86857   -156618.13    -153752.3     409.2795    569498.82    83.014469     82.82654     82.82654 
25470000    690.94271   -156612.14   -153754.26    618.26664    569498.82    82.951926    82.857758    82.857758 
25500000     689.8355   -156609.41   -153756.11    458.62683    569498.82    82.889136    82.889136    82.889136 
25530000    687.25918   -156634.98   -153792.34    223.59309    569498.82    82.826345    82.920549    82.920549 
25560000    687.40968    -156626.5   -153783.24    376.09361    569498.82    82.763802    82.951873    82.951873 
25590000     686.4453   -156615.65   -153776.38    452.20134    569498.82    82.701754    82.982985    82.982985 
25620000    690.09813   -156623.82   -153769.43    389.93381    569498.82    82.640446    83.013761    83.013761 
25650000    690.75101      -156601   -153743.92    468.85036    569498.82    82.580119    83.044077    83.044077 
25680000    689.96907   -156629.05    -153775.2    431.86095    569498.82    82.521011    83.073813    83.073813 
25710000    692.17788   -156627.37   -153764.39    376.93997    569498.82    82.463356    83.102849    83.102849 
25740000    691.12668   -156622.74    -153764.1    444.86404    569498.82    82.407382    83.131068    83.131068 
25770000    689.07228   -156633.77   -153783.63    246.73119    569498.82    82.353309    83.158355    83.158355 
25800000    687.33408    -156614.6   -153771.66    393.08625    569498.82     82.30135    83.184601    83.184601 
25830000    688.10441   -156622.56   -153776.42    256.72807    569498.82    82.251712    83.209698    83.209698 
25860000    689.50954    -156615.3   -153763.35    279.30927    569498.82    82.204589    83.233544    83.233544 
25890000    691.54389   -156588.12   -153727.76    584.20641    569498.82    82.160167    83.256042    83.256042 
25920000    694.10615   -156620.87   -153749.92    430.21961    569498.82    82.118622    83.277099    83.277099 
25950000    692.33173   -156609.66   -153746.04    679.30581    569498.82    82.080119    83.296629    83.296629 
25980000    695.15736   -156608.87   -153733.56    586.40676    569498.82    82.044808    83.314552    83.314552 
26010000    695.94576   -156635.68   -153757.11    238.47427    569498.82    82.012829    83.330794    83.330794 
26040000    689.03101   -156593.52   -153743.55    709.24901    569498.82    81.984309    83.345287    83.345287 
26070000    688.09943   -156595.24   -153749.12    576.50269    569498.82    81.959359    83.357972    83.357972 
26100000    690.82654   -156603.14   -153745.75    450.12739    569498.82    81.938079    83.368795    83.368795 
26130000    693.17743   -156615.59   -153748.47    470.93696    569498.82    81.920552    83.377713    83.377713 
26160000    688.39221   -156589.56   -153742.23    542.12285    569498.82    81.906848    83.384688    83.384688 
26190000    690.73678   -156605.77   -153748.75    484.56826    569498.82    81.897021    83.389691    83.389691 
26220000    686.53374   -156629.29   -153789.65    304.41152    569498.82    81.891109    83.392701    83.392701 
26250000    686.19534   -156591.54    -153753.3    521.13226    569498.82    81.889136    83.393706    83.393706 
26280000    689.19616   -156602.37   -153751.72     365.1731    569498.82    81.891109    83.392701    83.392701 
26310000    688.66196   -156600.93   -153752.49    364.90498    569498.82    81.897021    83.389691    83.389691 
26340000    694.69139    -156620.8   -153747.42    354.97561    569498.82    81.906848    83.384688    83.384688 
26370000    684.69163   -156637.32    -153805.3    72.191796    569498.82    81.920552    83.377713    83.377713 
26400000    686.98471    -156610.4    -153768.9    239.81656    569498.82    81.938079    83.368795    83.368795 
26430000    691.66082   -156618.89   -153758.04    370.90841    569498.82    81.959359    83.357972    83.357972 
26460000    687.67461   -156605.69   -153761.34    418.84984    569498.82    81.984309    83.345287    83.345287 
26490000     685.9154   -156605.95   -153768.87     256.9433    569498.82    82.012829    83.330794    83.330794 
26520000    692.03985   -156576.57   -153714.16    657.45939    569498.82    82.044808    83.314552    83.314552 
26550000    688.59227   -156602.27   -153754.12    529.19576    569498.82    82.080119    83.296629    83.296629 
26580000    691.75156   -156593.94   -153732.72    522.44147    569498.82    82.118622    83.277099    83.277099 
26610000    688.57229   -156633.98   -153785.91    309.99652    569498.82    82.160167    83.256042    83.256042 
26640000    691.79344   -156622.44   -153761.04     387.2332    569498.82    82.204589    83.233544    83.233544 
26670000    696.61256   -156583.96   -153702.63    650.03301    569498.82    82.251712    83.209698    83.209698 
26700000    688.69383   -156615.23   -153766.66     477.1442    569498.82     82.30135    83.184601    83.184601 
26730000    694.21303   -156605.87   -153734.47    478.99295    569498.82    82.353309    83.158355    83.158355 
26760000    692.28875   -156638.24    -153774.8    404.02629    569498.82    82.407382    83.131068    83.131068 
26790000    686.93361    -156625.9    -153784.6    392.19614    569498.82    82.463356    83.102849    83.102849 
26820000    687.44996   -156620.21   -153776.78    262.02795    569498.82    82.521011    83.073813    83.073813 
26850000    689.71537    -156596.3    -153743.5    533.19847    569498.82    82.580119    83.044077    83.044077 
26880000    692.98937   -156612.61   -153746.28    497.60609    569498.82    82.640446    83.013761    83.013761 
26910000    690.82879   -156604.28   -153746.88     607.0604    569498.82    82.701754    82.982985    82.982985 
26940000    696.84915   -156614.03   -153731.72    713.75444    569498.82    82.763802    82.951873    82.951873 
26970000    686.93558   -156604.14   -153762.84    526.44606    569498.82    82.826345    82.920549    82.920549 
27000000    686.21642   -156603.47   -153765.15    364.34525    569498.82    82.889136    82.889136    82.889136 
27030000    693.60022   -156601.08   -153732.22    571.63326    569498.82    82.951926    82.857758    82.857758 
27060000    687.20558   -156602.19   -153759.77    387.00983    569498.82    83.014469     82.82654     82.82654 
27090000    691.55886   -156586.42      -153726    793.74323    569498.82    83.076517    82.795604    82.795604 
27120000    691.26075   -156618.98   -153759.79    305.28522    569498.82    83.137825     82.76507     82.76507 
27150000    688.40068   -156631.25   -153783.89    348.21828    569498.82    83.198153    82.735058    82.735058 
27180000    690.37746   -156594.59   -153739.06    650.90884    569498.82     83.25726    82.705684    82.705684 
27210000    691.07024   -156571.87   -153713.47    792.33414    569498.82    83.314915    82.677063    82.677063 
27240000    686.47279   -156598.21   -153758.83    500.63735    569498.82    83.370889    82.649304    82.649304 
27270000    694.54561   -156588.66   -153715.88    752.75851    569498.82    83.424962    82.622514    82.622514 
27300000     688.9247   -156581.83   -153732.31     695.9903    569498.82    83.476921    82.596797    82.596797 
27330000     688.8694   -156583.85   -153734.55    518.70092    569498.82     83.52656     82.57225     82.57225 
27360000    689.89189   -156588.85   -153735.32     584.9206    569498.82    83.573683    82.548968    82.548968 
27390000    690.49107   -156604.14   -153748.14    470.35957    569498.82    83.618104    82.527038    82.527038 
27420000    684.78038    -156595.4   -153763.01    643.61687    569498.82    83.659649    82.506544    82.506544 
27450000    687.57866   -156611.52   -153767.56    405.04817    569498.82    83.698153    82.487564    82.487564 
27480000     687.1028   -156592.35   -153750.36    729.29812    569498.82    83.733464     82.47017     82.47017 
27510000     687.1356   -156595.97   -153753.84     533.6659    569498.82    83.765442    82.454426    82.454426 
27540000    687.19739   -156596.17   -153753.79    782.07804    569498.82    83.793963    82.440393    82.440393 
27570000    691.16321   -156631.25   -153772.46    323.80129    569498.82    83.818912    82.428122    82.428122 
27600000      692.928   -156583.87   -153717.79     726.1952    569498.82    83.840192    82.417661    82.417661 
27630000    690.66471   -156615.08   -153758.36    473.51486    569498.82    83.857719    82.409047    82.409047 
27660000    685.32301   -156602.17   -153767.54    435.16319    569498.82    83.871423    82.402315    82.402315 
27690000    689.20875   -156615.77   -153765.07    626.56658    569498.82     83.88125    82.397487    82.397487 
27720000    694.56919   -156611.35   -153738.47    460.56467    569498.82    83.887162    82.394584    82.394584 
27750000    683.38781   -156615.34   -153788.72    508.06977    569498.82    83.889136    82.393615    82.393615 
27780000    682.66089   -156608.09   -153784.47    240.93935    569498.82    83.887162    82.394584    82.394584 
27810000    687.69156   -156647.15   -153802.73    210.38914    569498.82     83.88125    82.397487    82.397487 
27840000    686.28648   -156614.32   -153775.71    336.49691    569498.82    83.871423    82.402315    82.402315 
27870000    693.09688   -156616.05   -153749.27     552.0976    569498.82    83.857719    82.409047    82.409047 
27900000    684.06122   -156614.84   -153785.43    314.58642    569498.82    83.840192    82.417661    82.417661 
27930000    685.87932    -156622.6   -153785.67    294.48321    569498.82    83.818912    82.428122    82.428122 
27960000    694.68687   -156617.06    -153743.7    645.81228    569498.82    83.793963    82.440393    82.440393 
27990000    687.20973   -156631.52   -153789.09     431.3889    569498.82    83.765442    82.454426    82.454426 
28020000    688.65812   -156614.47   -153766.04     575.6777    569498.82    83.733464     82.47017     82.47017 
28050000    689.11105   -156619.41   -153769.11    492.32451    569498.82    83.698153    82.487564    82.487564 
28080000    687.97853   -156630.24   -153784.62    314.25772    569498.82    83.659649    82.506544    82.506544 
28110000    686.25184   -156619.68   -153781.21     490.7198    569498.82    83.618104    82.527038    82.527038 
28140000    691.55274   -156629.81   -153769.42    434.15783    569498.82    83.573683    82.548968    82.548968 
28170000    690.34993   -156639.51   -153784.09    381.39867    569498.82     83.52656     82.57225     82.57225 
28200000    689.90285   -156630.38    -153776.8     344.5879    569498.82    83.476921    82.596797    82.596797 
28230000    691.82388   -156622.59   -153761.07    387.28985    569498.82    83.424962    82.622514    82.622514 
28260000    684.28223   -156604.53   -153774.21    400.58087    569498.82    83.370889    82.649304    82.649304 
28290000    680.90815   -156628.82   -153812.45    378.85025    569498.82    83.314915    82.677063    82.677063 
28320000    690.03997   -156651.01   -153796.87    212.15773    569498.82     83.25726    82.705684    82.705684 
28350000    693.66864   -156609.95    -153740.8    576.98371    569498.82    83.198153    82.735058    82.735058 
28380000    689.13938   -156634.89   -153784.48    156.40572    569498.82    83.137825     82.76507     82.76507 
28410000    691.66273   -156634.17   -153773.32    395.89492    569498.82    83.076517    82.795604    82.795604 
28440000    687.51336   -156623.97   -153780.28    289.66621    569498.82    83.014469     82.82654     82.82654 
28470000     690.9364   -156640.79   -153782.94    396.29926    569498.82    82.951926    82.857758    82.857758 
28500000    689.58793   -156624.73   -153772.46    364.56163    569498.82    82.889136    82.889136    82.889136 
28530000    685.95528    -156604.8   -153767.56    474.47221    569498.82    82.826345    82.920549    82.920549 
28560000    687.37096   -156622.33   -153779.23     455.3276    569498.82    82.763802    82.951873    82.951873 
28590000    692.12654   -156600.84   -153738.07    505.05878    569498.82    82.701754    82.982985    82.982985 
28620000    695.62868   -156637.67   -153760.41    341.02776    569498.82    82.640446    83.013761    83.013761 
28650000    688.75742   -156658.91   -153810.07    85.096722    569498.82    82.580119    83.044077    83.044077 
28680000    690.87514   -156665.21   -153807.62    50.293338    569498.82    82.521011    83.073813    83.073813 
28710000    685.66056   -156635.54   -153799.51    321.64041    569498.82    82.463356    83.102849    83.102849 
28740000    684.98179   -156590.21   -153756.99    464.52189    569498.82    82.407382    83.131068    83.131068 
28770000    687.56288   -156611.42   -153767.52    230.68021    569498.82    82.353309    83.158355    83.158355 
28800000    692.35389   -156633.46   -153769.75    311.69612    569498.82     82.30135    83.184601    83.184601 
28830000     692.9529      -156617   -153750.81     241.8532    569498.82    82.251712    83.209698    83.209698 
28860000    692.05644   -156624.84   -153762.36    355.86911    569498.82    82.204589    83.233544    83.233544 
28890000    686.98004   -156631.73   -153790.25    171.17735    569498.82    82.160167    83.256042    83.256042 
28920000    686.09753   -156588.54   -153750.71    543.13092    569498.82    82.118622    83.277099    83.277099 
28950000    694.72514   -156623.55   -153750.03    394.60705    569498.82    82.080119    83.296629    83.296629 
28980000    683.92106   -156624.61   -153795.78    280.86989    569498.82    82.044808    83.314552    83.314552 
29010000      693.955   -156609.15   -153738.82    509.26259    569498.82    82.012829    83.330794    83.330794 
29040000    694.90444   -156616.23   -153741.97    386.32816    569498.82    81.984309    83.345287    83.345287 
29070000    689.55787   -156618.93   -153766.78    424.08277    569498.82    81.959359    83.357972    83.357972 
29100000    686.87735    -156589.4   -153748.34    432.29309    569498.82    81.938079    83.368795    83.368795 
29130000    686.48978   -156620.46   -153781.01    304.73624    569498.82    81.920552    83.377713    83.377713 
29160000    689.09513   -156593.14    -153742.9    569.07265    569498.82    81.906848    83.384688    83.384688 
29190000    692.63241   -156633.52   -153768.66    104.16861    569498.82    81.897021    83.389691    83.389691 
29220000     687.0442   -156599.24   -153757.49    327.15107    569498.82    81.891109    83.392701    83.392701 
29250000    684.25968   -156624.62   -153794.39    348.36381    569498.82    81.889136    83.393706    83.393706 
29280000    691.22181   -156627.26   -153768.24    316.35143    569498.82    81.891109    83.392701    83.392701 
29310000    690.79685   -156607.05   -153749.78    318.65368    569498.82    81.897021    83.389691    83.389691 
29340000    685.58217   -156618.74   -153783.03    254.05204    569498.82    81.906848    83.384688    83.384688 
29370000    686.51661    -156627.6   -153788.04     184.6444    569498.82    81.920552    83.377713    83.377713 
29400000    691.69344   -156626.12   -153765.14    309.94327    569498.82    81.938079    83.368795    83.368795 
29430000    685.18532   -156643.27   -153809.21    267.73628    569498.82    81.959359    83.357972    83.357972 
29460000    689.03651   -156627.67   -153777.68     343.2791    569498.82    81.984309    83.345287    83.345287 
29490000    688.62908    -156640.7    -153792.4    183.93402    569498.82    82.012829    83.330794    83.330794 
29520000    695.91072   -156656.02    -153777.6    98.970321    569498.82    82.044808    83.314552    83.314552 
29550000     691.6768   -156616.26   -153755.35    325.37598    569498.82    82.080119    83.296629    83.296629 
29580000    688.00887   -156630.54    -153784.8    255.48613    569498.82    82.118622    83.277099    83.277099 
29610000    688.51033   -156633.09   -153785.28    95.449473    569498.82    82.160167    83.256042    83.256042 
29640000    696.84015    -156608.2   -153725.94    231.12451    569498.82    82.204589    83.233544    83.233544 
29670000    691.40122   -156635.29   -153775.52    247.11387    569498.82    82.251712    83.209698    83.209698 
29700000    691.03373   -156628.13   -153769.88    135.71234    569498.82     82.30135    83.184601    83.184601 
29730000    693.36095   -156618.46   -153750.59    495.38818    569498.82    82.353309    83.158355    83.158355 
29760000    687.01301   -156637.49   -153795.87    405.20429    569498.82    82.407382    83.131068    83.131068 
29790000    691.30432   -156616.34   -153756.97    325.46057    569498.82    82.463356    83.102849    83.102849 
29820000    692.68018   -156638.39   -153773.33    226.87338    569498.82    82.521011    83.073813    83.073813 
29850000    689.59551   -156634.54   -153782.24     312.3961    569498.82    82.580119    83.044077    83.044077 
29880000    686.24644   -156619.83   -153781.38    419.31782    569498.82    82.640446    83.013761    83.013761 
29910000    689.92171   -156630.35   -153776.69    282.12579    569498.82    82.701754    82.982985    82.982985 
29940000     687.0535   -156622.76   -153780.97    361.13292    569498.82    82.763802    82.951873    82.951873 
29970000    690.27134   -156617.12   -153762.02    398.75434    569498.82    82.826345    82.920549    82.920549 
30000000    687.51615   -156625.03   -153781.33      275.412    569498.82    82.889136    82.889136    82.889136 
Loop time of 47084.1 on 24 procs for 30000000 steps with 32000 atoms

Performance: 550.504 ns/day, 0.044 hours/ns, 637.158 timesteps/s
98.3% CPU use with 24 MPI tasks x 1 OpenMP threads

MPI task timing breakdown:
Section |  min time  |  avg time  |  max time  |%varavg| %total
---------------------------------------------------------------
Pair    | 36161      | 36549      | 37044      | 101.8 | 77.62
Neigh   | 2210.3     | 2363.9     | 2488.9     | 164.7 |  5.02
Comm    | 3636       | 4211.6     | 4705.5     | 418.1 |  8.94
Output  | 0.26469    | 0.37201    | 0.38365    |   3.7 |  0.00
Modify  | 3308.7     | 3441.6     | 3567.7     |  98.0 |  7.31
Other   |            | 517.7      |            |       |  1.10

Nlocal:        1333.33 ave        1347 max        1309 min
Histogram: 1 1 0 0 1 2 10 6 1 2
Nghost:        4193.46 ave        4234 max        4166 min
Histogram: 3 4 1 4 3 4 2 2 0 1
Neighs:        96580.6 ave       99140 max       93015 min
Histogram: 1 1 0 2 3 6 2 5 3 1

Total # of neighbors = 2317935
Ave neighs/atom = 72.435469
Neighbor list builds = 3365438
Dangerous builds = 0
clear
OMP_NUM_THREADS environment is not set. Defaulting to 1 thread. (../comm.cpp:94)
  using 1 OpenMP thread(s) per MPI task
package intel 1
jump dms700.lmp
#MD-DMS by Ha-Bin Yu
#package gpu 4
variable T equal 700
log log.${T}
log log.700
