ITEM: TIMESTEP
0
ITEM: NUMBER OF ATOMS
7200
ITEM: BOX BOUNDS xy xz yz pp pp pp
0.0000000000000000e+00 2.1900000000000000e+02 0.0000000000000000e+00
0.0000000000000000e+00 2.1900000000000000e+02 0.0000000000000000e+00
-3.6499999999999999e-01 3.6499999999999999e-01 0.0000000000000000e+00
ITEM: ATOMS id type x y z
1 1 180.952 93.1946 -5.55112e-17
2 1 209.317 48.046 -5.55112e-17
3 1 194.307 126.198 -5.55112e-17
4 1 51.332 120.577 -5.55112e-17
5 1 180.162 152.978 -5.55112e-17
6 1 173.222 80.8149 -5.55112e-17
7 1 185.026 199.488 -5.55112e-17
8 2 125.994 157.465 -5.55112e-17
9 1 92.2705 2.95083 -5.55112e-17
10 2 40.0344 148.671 -5.55112e-17
11 1 174.129 132.761 -5.55112e-17
12 1 27.4533 146.308 -5.55112e-17
13 2 138.046 191.332 -5.55112e-17
14 1 125.173 211.231 -5.55112e-17
15 1 189.379 9.02306 -5.55112e-17
16 2 145.858 193.139 -5.55112e-17
17 1 141.894 64.1775 -5.55112e-17
18 2 30.9999 127.611 -5.55112e-17
19 1 176.763 98.9535 -5.55112e-17
20 1 7.55327 153.357 -5.55112e-17
21 1 19.4012 0.454386 -5.55112e-17
22 2 12.7301 64.9076 -5.55112e-17
23 2 204.722 81.3354 -5.55112e-17
24 1 3.32311 184.748 -5.55112e-17
25 1 65.286 213.56 -5.55112e-17
26 2 6.74677 173.264 -5.55112e-17
27 1 159.191 17.8134 -5.55112e-17
28 2 43.3828 188.132 -5.55112e-17
29 1 6.26496 128.505 -5.55112e-17
30 1 116.547 60.0119 -5.55112e-17
31 1 116.678 74.2633 -5.55112e-17
32 1 55.6936 41.5827 -5.55112e-17
33 1 100.601 160.672 -5.55112e-17
34 1 215.376 33.0991 -5.55112e-17
35 1 127.23 195.152 -5.55112e-17
36 1 76.4777 106.653 -5.55112e-17
37 2 178.385 22.465 -5.55112e-17
38 1 1.78659 127.182 -5.55112e-17
39 1 146.685 119.034 -5.55112e-17
40 1 56.9795 67.1572 -5.55112e-17
41 1 158.226 134.249 -5.55112e-17
42 1 166.36 129.558 -5.55112e-17
43 1 111.814 65.2569 -5.55112e-17
44 1 154.303 48.7346 -5.55112e-17
45 1 125.432 99.2787 -5.55112e-17
46 1 58.899 34.1705 -5.55112e-17
47 1 101.042 78.3327 -5.55112e-17
48 2 169.553 76.5068 -5.55112e-17
49 1 116.147 212.129 -5.55112e-17
50 1 150.948 4.28105 -5.55112e-17
51 1 15.3579 37.0647 -5.55112e-17
52 1 112.741 88.833 -5.55112e-17
53 1 196.461 203.751 -5.55112e-17
54 1 154.89 121.234 -5.55112e-17
55 1 22.1806 140.719 -5.55112e-17
56 1 51.0158 166.759 -5.55112e-17
57 2 181.594 140.718 -5.55112e-17
58 1 162.184 182.316 -5.55112e-17
59 1 61.2301 4.35579 -5.55112e-17
60 2 111.915 45.3565 -5.55112e-17
61 2 208.386 91.7686 -5.55112e-17
62 1 142.377 113.76 -5.55112e-17
63 1 196.657 137.447 -5.55112e-17
64 1 11.6259 74.1484 -5.55112e-17
65 1 186.827 17.9484 -5.55112e-17
66 1 167.585 29.8989 -5.55112e-17
67 1 14.3058 163.192 -5.55112e-17
68 1 60.7696 193.311 -5.55112e-17
69 1 51.9145 147.672 -5.55112e-17
70 1 123.632 47.2216 -5.55112e-17
71 1 67.2792 197.401 -5.55112e-17
72 1 66.2267 157.687 -5.55112e-17
73 1 198.549 150.021 -5.55112e-17
74 1 124.697 36.7317 -5.55112e-17
75 2 97.0243 14.4422 -5.55112e-17
76 1 79.355 28.7054 -5.55112e-17
77 1 171.724 29.69 -5.55112e-17
78 1 58.1345 52.4937 -5.55112e-17
79 2 0.516032 13.9132 -5.55112e-17
80 1 172.585 182.26 -5.55112e-17
81 1 126.123 87.0324 -5.55112e-17
82 1 131.965 211.638 -5.55112e-17
83 2 86.9817 205.289 -5.55112e-17
84 1 209.145 16.6404 -5.55112e-17
85 1 65.1535 136.702 -5.55112e-17
86 1 185.648 204.018 -5.55112e-17
87 1 99.7225 111.745 -5.55112e-17
88 1 26.8371 176.715 -5.55112e-17
89 2 149.585 35.8314 -5.55112e-17
90 2 58.2891 69.6265 -5.55112e-17
91 1 116.76 200.295 -5.55112e-17
92 2 184.387 104.86 -5.55112e-17
93 1 209.097 12.2461 -5.55112e-17
94 2 141.902 127.614 -5.55112e-17
95 1 216.124 40.2877 -5.55112e-17
96 1 134.404 78.1143 -5.55112e-17
97 1 51.6346 133.175 -5.55112e-17
98 1 129.464 175.729 -5.55112e-17
99 1 167.163 176.664 -5.55112e-17
100 1 40.6362 35.2433 -5.55112e-17
101 1 37.8412 201.132 -5.55112e-17
102 1 61.8068 49.0528 -5.55112e-17
103 1 168.609 193.38 -5.55112e-17
104 1 190.299 96.3652 -5.55112e-17
105 1 49.0891 196.024 -5.55112e-17
106 1 190.81 131.769 -5.55112e-17
107 2 32.9136 215.2 -5.55112e-17
108 1 152.911 189.16 -5.55112e-17
109 1 143.678 67.5311 -5.55112e-17
110 1 179.691 155.344 -5.55112e-17
111 1 206.947 4.36704 -5.55112e-17
112 1 159.599 62.1056 -5.55112e-17
113 1 121.276 13.6742 -5.55112e-17
114 1 64.9631 153.083 -5.55112e-17
115 1 70.3758 46.1712 -5.55112e-17
116 2 52.4439 94.7545 -5.55112e-17
117 1 195.427 153.431 -5.55112e-17
118 1 105.731 79.7539 -5.55112e-17
119 2 101.65 140.761 -5.55112e-17
120 1 61.6032 93.8476 -5.55112e-17
121 1 34.7961 146.219 -5.55112e-17
122 1 60.5117 130.913 -5.55112e-17
123 1 147.589 189.871 -5.55112e-17
124 1 156.967 93.513 -5.55112e-17
125 1 130.715 147.264 -5.55112e-17
126 1 199.58 159.447 -5.55112e-17
127 1 210.785 32.2364 -5.55112e-17
128 1 151.64 89.2801 -5.55112e-17
129 1 199.666 143.978 -5.55112e-17
130 1 120.648 98.8884 -5.55112e-17
131 1 196.34 68.3735 -5.55112e-17
132 2 95.8792 160.941 -5.55112e-17
133 1 22.4039 108.656 -5.55112e-17
134 1 154.088 197.697 -5.55112e-17
135 1 196.58 134.655 -5.55112e-17
136 1 86.6808 86.8267 -5.55112e-17
137 1 98.396 200.874 -5.55112e-17
138 1 168.813 93.8416 -5.55112e-17
139 1 26.8407 29.4941 -5.55112e-17
140 2 156.962 27.6919 -5.55112e-17
141 1 95.1567 174.196 -5.55112e-17
142 2 34.8098 162.569 -5.55112e-17
143 1 99.9718 82.9985 -5.55112e-17
144 2 35.1122 117.845 -5.55112e-17
145 1 171.548 89.1597 -5.55112e-17
146 1 102.698 168.79 -5.55112e-17
147 1 139.382 12.2366 -5.55112e-17
148 1 65.7804 25.1596 -5.55112e-17
149 1 193.761 183.274 -5.55112e-17
150 1 20.6301 217.003 -5.55112e-17
151 1 25.3968 151.113 -5.55112e-17
152 1 4.06249 126.65 -5.55112e-17
153 2 53.8168 150.189 -5.55112e-17
154 1 20.9255 70.4391 -5.55112e-17
155 1 82.4024 180.245 -5.55112e-17
156 2 13.7069 110.988 -5.55112e-17
157 1 37.7507 86.9061 -5.55112e-17
158 1 135.554 31.7586 -5.55112e-17
159 1 77.7548 140.508 -5.55112e-17
160 1 82.4258 53.4819 -5.55112e-17
161 1 52.8391 168.917 -5.55112e-17
162 1 211.235 87.3315 -5.55112e-17
163 1 10.1924 71.8669 -5.55112e-17
164 1 215.002 59.385 -5.55112e-17
165 1 11.5525 23.8083 -5.55112e-17
166 2 146.701 87.4775 -5.55112e-17
167 1 71.05 139.795 -5.55112e-17
168 1 217.028 18.5656 -5.55112e-17
169 1 214.755 97.4227 -5.55112e-17
170 1 60.6891 42.2109 -5.55112e-17
171 1 10.9388 203.276 -5.55112e-17
172 1 147.518 40.7136 -5.55112e-17
173 1 123.363 209.312 -5.55112e-17
174 1 181.598 27.1654 -5.55112e-17
175 2 167.329 121.152 -5.55112e-17
176 1 155.44 23.2505 -5.55112e-17
177 2 101.364 209.001 -5.55112e-17
178 1 208.187 99.3625 -5.55112e-17
179 1 5.47748 51.4548 -5.55112e-17
180 1 203.387 146.551 -5.55112e-17
181 1 81.0059 131.467 -5.55112e-17
182 2 205.339 104.699 -5.55112e-17
183 1 9.54463 188.259 -5.55112e-17
184 1 25.221 206.108 -5.55112e-17
185 2 196.906 54.4501 -5.55112e-17
186 2 106.806 21.7801 -5.55112e-17
187 1 174.483 25.6104 -5.55112e-17
188 1 188.291 203.706 -5.55112e-17
189 1 175.079 45.7972 -5.55112e-17
190 2 151.311 215.22 -5.55112e-17
191 1 42.8647 36.778 -5.55112e-17
192 2 127.898 147.093 -5.55112e-17
193 2 188.196 198.699 -5.55112e-17
194 1 195.446 59.4716 -5.55112e-17
195 1 173.729 180.032 -5.55112e-17
196 1 65.4294 172.865 -5.55112e-17
197 1 107.674 98.7614 -5.55112e-17
198 2 46.3851 198.189 -5.55112e-17
199 1 63.0262 17.4191 -5.55112e-17
200 1 68.8936 20.3582 -5.55112e-17
201 2 126.535 73.0405 -5.55112e-17
202 1 140.671 200.124 -5.55112e-17
203 1 71.2238 75.5677 -5.55112e-17
204 1 132.471 178.907 -5.55112e-17
205 2 195.002 211.252 -5.55112e-17
206 1 90.9654 185.086 -5.55112e-17
207 1 109.451 168.342 -5.55112e-17
208 1 170.242 135.649 -5.55112e-17
209 1 123.416 66.3481 -5.55112e-17
210 1 163.741 191.242 -5.55112e-17
211 2 196.572 40.7213 -5.55112e-17
212 1 112.014 72.5422 -5.55112e-17
213 1 204.111 78.4811 -5.55112e-17
214 1 14.0795 69.7951 -5.55112e-17
215 1 203.478 42.8546 -5.55112e-17
216 1 138.194 27.7849 -5.55112e-17
217 1 73.6305 1.40261 -5.55112e-17
218 2 183.52 174.17 -5.55112e-17
219 1 182.246 199.821 -5.55112e-17
220 2 43.8824 88.867 -5.55112e-17
221 1 206.131 71.3564 -5.55112e-17
222 1 205.669 29.6208 -5.55112e-17
223 1 91.953 182.691 -5.55112e-17
224 2 16.2866 4.82342 -5.55112e-17
225 1 70.6614 158.924 -5.55112e-17
226 1 185.048 108.055 -5.55112e-17
227 2 29.1338 135.232 -5.55112e-17
228 1 73.6915 187.327 -5.55112e-17
229 1 193.259 86.6344 -5.55112e-17
230 1 173.596 127.064 -5.55112e-17
231 1 159.306 105.066 -5.55112e-17
232 1 57.7047 32.0616 -5.55112e-17
233 1 206.424 23.8789 -5.55112e-17
234 1 170.396 71.6133 -5.55112e-17
235 1 31.3823 52.1858 -5.55112e-17
236 1 124.603 123.339 -5.55112e-17
237 1 53.8515 212 -5.55112e-17
238 1 82.8826 135.363 -5.55112e-17
239 2 39.9535 121.311 -5.55112e-17
240 1 194.617 73.0877 -5.55112e-17
241 2 83.1884 117.152 -5.55112e-17
242 2 37.9699 190.605 -5.55112e-17
243 2 72.7351 14.4137 -5.55112e-17
244 1 63.364 41.9174 -5.55112e-17
245 1 62.0508 147.286 -5.55112e-17
246 1 107.429 199.976 -5.55112e-17
247 1 180.074 81.4479 -5.55112e-17
248 1 110.327 92.3944 -5.55112e-17
249 1 195.813 51.5225 -5.55112e-17
250 2 79.5897 0.421762 -5.55112e-17
251 1 116.852 39.2649 -5.55112e-17
252 1 66.9575 38.9842 -5.55112e-17
253 1 109.914 63.159 -5.55112e-17
254 2 126.571 171.216 -5.55112e-17
255 1 51.6942 21.4856 -5.55112e-17
256 1 198.163 25.256 -5.55112e-17
257 1 59.3892 66.5033 -5.55112e-17
258 2 105.849 35.3371 -5.55112e-17
259 1 188.199 19.9202 -5.55112e-17
260 1 22.166 146.97 -5.55112e-17
261 1 130.836 130.911 -5.55112e-17
262 1 13.5277 120.89 -5.55112e-17
263 1 95.2851 12.1159 -5.55112e-17
264 1 46.1247 180.957 -5.55112e-17
265 1 157.848 180.691 -5.55112e-17
266 1 154.693 112.689 -5.55112e-17
267 1 174.624 163.813 -5.55112e-17
268 1 39.8812 183.549 -5.55112e-17
269 1 84.9018 63.5585 -5.55112e-17
270 1 25.2173 71.0652 -5.55112e-17
271 1 36.331 98.6304 -5.55112e-17
272 1 202.078 159.944 -5.55112e-17
273 1 77.4928 88.8648 -5.55112e-17
274 2 182.458 120.942 -5.55112e-17
275 1 59.3076 75.2863 -5.55112e-17
276 2 141.008 27.7615 -5.55112e-17
277 2 175.26 61.8044 -5.55112e-17
278 1 169.271 206.016 -5.55112e-17
279 2 138.619 40.5354 -5.55112e-17
280 1 100.471 10.688 -5.55112e-17
281 1 172.241 190.579 -5.55112e-17
282 1 201.169 18.1461 -5.55112e-17
283 1 196.062 179.635 -5.55112e-17
284 1 88.8184 171.954 -5.55112e-17
285 1 179.003 43.31 -5.55112e-17
286 2 89.5272 2.48026 -5.55112e-17
287 1 90.5262 113.094 -5.55112e-17
288 1 40.2983 168.95 -5.55112e-17
289 1 53.8278 192.841 -5.55112e-17
290 1 193.629 170.726 -5.55112e-17
291 1 108.362 58.5441 -5.55112e-17
292 2 171.396 116.97 -5.55112e-17
293 2 60.2809 134.455 -5.55112e-17
294 1 169.868 176.26 -5.55112e-17
295 1 117.459 57.6384 -5.55112e-17
296 1 76.6345 208.239 -5.55112e-17
297 1 173.212 4.54191 -5.55112e-17
298 1 110.675 216.04 -5.55112e-17
299 1 112.326 161.963 -5.55112e-17
300 2 160.191 97.5204 -5.55112e-17
301 1 193.695 80.5144 -5.55112e-17
302 1 105.202 159.689 -5.55112e-17
303 2 59.1179 13.9781 -5.55112e-17
304 2 14.4919 74.9898 -5.55112e-17
305 1 99.2168 5.06816 -5.55112e-17
306 1 136.829 120.724 -5.55112e-17
307 1 6.50733 168.897 -5.55112e-17
308 1 139.98 106.957 -5.55112e-17
309 2 109.371 124.2 -5.55112e-17
310 1 4.22836 1.44742 -5.55112e-17
311 1 210.266 152.921 -5.55112e-17
312 1 77.2292 152.286 -5.55112e-17
313 2 125.177 10.0662 -5.55112e-17
314 1 185.58 11.8219 -5.55112e-17
315 1 198.817 147.392 -5.55112e-17
316 1 109.024 214.133 -5.55112e-17
317 1 86.6599 140.77 -5.55112e-17
318 1 118.349 211.149 -5.55112e-17
319 1 63.9228 156.231 -5.55112e-17
320 1 190.692 218.431 -5.55112e-17
321 1 60.3771 9.47045 -5.55112e-17
322 1 83.0029 112.481 -5.55112e-17
323 1 56.3113 199.055 -5.55112e-17
324 1 118.957 121.27 -5.55112e-17
325 1 97.0193 124.825 -5.55112e-17
326 1 37.3165 183.572 -5.55112e-17
327 2 142.333 105.913 -5.55112e-17
328 1 41.4959 43.4946 -5.55112e-17
329 2 27.7951 63.1876 -5.55112e-17
330 1 129.914 16.7889 -5.55112e-17
331 1 170.817 81.3839 -5.55112e-17
332 2 124.123 14.7221 -5.55112e-17
333 1 34.0812 114.981 -5.55112e-17
334 1 165.691 98.5504 -5.55112e-17
335 1 204.67 119.908 -5.55112e-17
336 1 51.0437 108.682 -5.55112e-17
337 1 56.4277 211.822 -5.55112e-17
338 1 196.852 78.9996 -5.55112e-17
339 1 50.2197 202.602 -5.55112e-17
340 1 69.5903 181.527 -5.55112e-17
341 1 198.687 32.5164 -5.55112e-17
342 1 112.51 141.214 -5.55112e-17
343 1 140.21 100.277 -5.55112e-17
344 1 85.5051 36.6923 -5.55112e-17
345 1 86.9476 200.391 -5.55112e-17
346 1 204.295 73.1309 -5.55112e-17
347 1 31.5127 113.995 -5.55112e-17
348 1 141.354 53.0605 -5.55112e-17
349 1 216.301 123.824 -5.55112e-17
350 2 124.635 184.41 -5.55112e-17
351 1 200.37 206.844 -5.55112e-17
352 1 66.3896 170.288 -5.55112e-17
353 1 69.8008 60.642 -5.55112e-17
354 1 142.059 208.92 -5.55112e-17
355 1 141.618 39.8367 -5.55112e-17
356 1 163.446 179.923 -5.55112e-17
357 1 86.1824 190.287 -5.55112e-17
358 1 94.2997 18.937 -5.55112e-17
359 1 83.9087 127.77 -5.55112e-17
360 1 214.99 134.883 -5.55112e-17
361 1 142.237 6.51914 -5.55112e-17
362 1 25.1517 15.5538 -5.55112e-17
363 1 212.902 169.09 -5.55112e-17
364 2 206.579 101.503 -5.55112e-17
365 1 68.4469 92.8008 -5.55112e-17
366 1 152.314 138.735 -5.55112e-17
367 1 36.698 110.84 -5.55112e-17
368 1 3.16297 86.3686 -5.55112e-17
369 2 61.7114 73.6536 -5.55112e-17
370 1 141.424 58.6012 -5.55112e-17
371 1 87.8609 180.357 -5.55112e-17
372 2 149.224 27.2581 -5.55112e-17
373 2 136.519 129.547 -5.55112e-17
374 1 116.958 194.272 -5.55112e-17
375 1 115.796 32.1942 -5.55112e-17
376 1 26.587 110.452 -5.55112e-17
377 1 118.804 137.461 -5.55112e-17
378 1 185.237 60.4316 -5.55112e-17
379 1 23.213 34.4138 -5.55112e-17
380 1 166.027 186.645 -5.55112e-17
381 1 140.855 42.18 -5.55112e-17
382 1 116.721 112.793 -5.55112e-17
383 1 82.6281 217.628 -5.55112e-17
384 1 175.685 158.626 -5.55112e-17
385 1 39.3358 98.4805 -5.55112e-17
386 2 173.281 48.1571 -5.55112e-17
387 1 44.9749 155.838 -5.55112e-17
388 1 119.756 123.639 -5.55112e-17
389 1 47.2513 33.6389 -5.55112e-17
390 2 172.485 32.3943 -5.55112e-17
391 2 214.229 200.672 -5.55112e-17
392 1 172.187 10.8604 -5.55112e-17
393 1 76.5539 122.188 -5.55112e-17
394 1 120.467 188.549 -5.55112e-17
395 1 53.1579 107.628 -5.55112e-17
396 1 88.6182 189.503 -5.55112e-17
397 1 114.041 64.4979 -5.55112e-17
398 1 162.252 83.7307 -5.55112e-17
399 1 32.5155 176.181 -5.55112e-17
400 1 64.4964 139.123 -5.55112e-17
401 1 62.595 174.208 -5.55112e-17
402 2 73.2759 46.8358 -5.55112e-17
403 1 18.8938 119.232 -5.55112e-17
404 1 208.678 169.74 -5.55112e-17
405 1 146.132 165.877 -5.55112e-17
406 1 55.5929 108.739 -5.55112e-17
407 2 13.7805 208.116 -5.55112e-17
408 1 93.1044 40.0839 -5.55112e-17
409 1 48.197 150.826 -5.55112e-17
410 1 21.4068 162.449 -5.55112e-17
411 1 30.7992 210.477 -5.55112e-17
412 1 132.81 107.125 -5.55112e-17
413 1 77.2496 143.113 -5.55112e-17
414 1 51.7436 60.1906 -5.55112e-17
415 1 148.473 164.971 -5.55112e-17
416 1 72.2826 82.6595 -5.55112e-17
417 1 117.697 166.57 -5.55112e-17
418 2 56.5461 21.911 -5.55112e-17
419 1 136.734 45.5059 -5.55112e-17
420 2 214.632 80.9186 -5.55112e-17
421 1 140.384 132.649 -5.55112e-17
422 1 190 6.43446 -5.55112e-17
423 2 57.908 126.705 -5.55112e-17
424 1 141.836 17.1834 -5.55112e-17
425 1 133.814 217.403 -5.55112e-17
426 1 180.303 213.4 -5.55112e-17
427 1 159.207 66.4458 -5.55112e-17
428 1 104.496 209.419 -5.55112e-17
429 1 125.493 208.072 -5.55112e-17
430 1 179.956 31.9777 -5.55112e-17
431 1 13.7847 22.8946 -5.55112e-17
432 1 131.697 74.5924 -5.55112e-17
433 1 175.335 201.153 -5.55112e-17
434 1 18.4035 121.738 -5.55112e-17
435 1 167.976 181.035 -5.55112e-17
436 1 137.58 38.2107 -5.55112e-17
437 1 80.3349 96.5619 -5.55112e-17
438 2 96.2239 76.7747 -5.55112e-17
439 1 55.9683 51.4691 -5.55112e-17
440 1 52.1414 116.011 -5.55112e-17
441 1 106.172 103.101 -5.55112e-17
442 1 199.467 78.4183 -5.55112e-17
443 1 71.8578 137.272 -5.55112e-17
444 1 34.5948 158.84 -5.55112e-17
445 1 109.916 201.172 -5.55112e-17
446 1 7.20044 135.034 -5.55112e-17
447 1 35.8098 26.6414 -5.55112e-17
448 1 121.55 154.968 -5.55112e-17
449 1 131.006 85.8201 -5.55112e-17
450 1 108.766 76.0513 -5.55112e-17
451 1 196.867 98.1787 -5.55112e-17
452 1 117.525 88.0318 -5.55112e-17
453 1 115.948 168.17 -5.55112e-17
454 1 199.062 111.54 -5.55112e-17
455 1 89.293 43.899 -5.55112e-17
456 1 55.3345 140.854 -5.55112e-17
457 1 186.052 62.771 -5.55112e-17
458 1 168.145 174.236 -5.55112e-17
459 1 168.406 149.278 -5.55112e-17
460 1 72.3508 89.2924 -5.55112e-17
461 1 45.9205 90.883 -5.55112e-17
462 1 211.657 213.399 -5.55112e-17
463 1 67.0212 145.466 -5.55112e-17
464 1 133.151 148.238 -5.55112e-17
465 1 206.143 201.386 -5.55112e-17
466 1 180.205 34.8716 -5.55112e-17
467 1 20.4163 135.952 -5.55112e-17
468 1 44.7998 59.9707 -5.55112e-17
469 1 129.598 35.8124 -5.55112e-17
470 1 58.8008 5.07318 -5.55112e-17
471 1 159.047 22.8972 -5.55112e-17
472 1 148.646 126.498 -5.55112e-17
473 1 26.5386 166.783 -5.55112e-17
474 1 116.314 204.325 -5.55112e-17
475 1 46.2494 173.168 -5.55112e-17
476 2 55.164 214.47 -5.55112e-17
477 1 170.571 199.426 -5.55112e-17
478 1 183.85 112.681 -5.55112e-17
479 1 142.801 132.69 -5.55112e-17
480 1 62.566 78.9945 -5.55112e-17
481 1 10.3898 143.175 -5.55112e-17
482 1 74.1376 198.719 -5.55112e-17
483 1 53.2813 16.0352 -5.55112e-17
484 2 133.229 117.095 -5.55112e-17
485 1 2.60183 15.6203 -5.55112e-17
486 1 12.085 48.1973 -5.55112e-17
487 1 79.8284 82.5541 -5.55112e-17
488 1 23.2602 92.1032 -5.55112e-17
489 1 136.383 42.8468 -5.55112e-17
490 1 24.2791 138.95 -5.55112e-17
491 1 178.033 161.023 -5.55112e-17
492 1 98.6438 100.644 -5.55112e-17
493 1 109.061 153.551 -5.55112e-17
494 1 123.324 166.988 -5.55112e-17
495 1 184.889 34.9252 -5.55112e-17
496 2 203.094 138.787 -5.55112e-17
497 1 208.076 167.736 -5.55112e-17
498 1 192.148 205.724 -5.55112e-17
499 2 158.655 87.0951 -5.55112e-17
500 1 40.682 133.617 -5.55112e-17
501 2 28.62 215.25 -5.55112e-17
502 2 48.5585 175.787 -5.55112e-17
503 1 113.005 131.925 -5.55112e-17
504 1 158.598 199.288 -5.55112e-17
505 1 21.2602 214.554 -5.55112e-17
506 1 20.3408 151.555 -5.55112e-17
507 1 185.183 183.145 -5.55112e-17
508 1 40.8429 26.5594 -5.55112e-17
509 2 84.4094 142.479 -5.55112e-17
510 2 187.178 178.11 -5.55112e-17
511 1 102.317 193.063 -5.55112e-17
512 2 93.6638 147.468 -5.55112e-17
513 1 57.4905 76.985 -5.55112e-17
514 1 209.239 64.6919 -5.55112e-17
515 1 150.416 84.0642 -5.55112e-17
516 1 184.328 6.91218 -5.55112e-17
517 1 146.998 208.238 -5.55112e-17
518 2 182.876 109.835 -5.55112e-17
519 1 77.2003 83.2454 -5.55112e-17
520 2 203.702 17.0529 -5.55112e-17
521 1 78.8202 50.5676 -5.55112e-17
522 1 85.5894 112.48 -5.55112e-17
523 1 14.8805 215.778 -5.55112e-17
524 1 193.047 117.024 -5.55112e-17
525 1 13.7227 10.8662 -5.55112e-17
526 1 198.331 66.5082 -5.55112e-17
527 1 135.762 70.3469 -5.55112e-17
528 1 86.8089 93.6152 -5.55112e-17
529 1 117.361 123.656 -5.55112e-17
530 1 81.4448 170.936 -5.55112e-17
531 1 45.9261 138.39 -5.55112e-17
532 1 43.0018 153.668 -5.55112e-17
533 1 151.438 103.165 -5.55112e-17
534 1 178.203 211.986 -5.55112e-17
535 1 190.252 51.8187 -5.55112e-17
536 1 131.341 71.8514 -5.55112e-17
537 1 29.3311 54.0144 -5.55112e-17
538 1 118.464 213.655 -5.55112e-17
539 1 217.088 54.6746 -5.55112e-17
540 1 91.215 145.586 -5.55112e-17
541 1 3.35624 19.7591 -5.55112e-17
542 1 108.546 186.02 -5.55112e-17
543 1 78.2453 215.109 -5.55112e-17
544 1 136.912 53.1967 -5.55112e-17
545 1 215.908 161.732 -5.55112e-17
546 1 146.9 160.263 -5.55112e-17
547 1 32.9874 207.037 -5.55112e-17
548 1 8.40058 1.16353 -5.55112e-17
549 1 91.4661 56.9474 -5.55112e-17
550 2 187.698 72.7728 -5.55112e-17
551 2 120.922 42.689 -5.55112e-17
552 2 135.964 104.204 -5.55112e-17
553 1 115.254 79.0821 -5.55112e-17
554 1 82.523 201.692 -5.55112e-17
555 2 125.483 64.6168 -5.55112e-17
556 1 20.4497 43.3887 -5.55112e-17
557 1 63.6801 141.71 -5.55112e-17
558 1 183.973 117.06 -5.55112e-17
559 1 19.222 161.501 -5.55112e-17
560 1 174.094 88.6207 -5.55112e-17
561 1 39.5954 142.959 -5.55112e-17
562 1 179.132 46.1415 -5.55112e-17
563 2 185.209 160.497 -5.55112e-17
564 1 209.68 155.958 -5.55112e-17
565 1 6.34559 2.45856 -5.55112e-17
566 1 171.366 15.2987 -5.55112e-17
567 1 99.4777 2.09807 -5.55112e-17
568 1 181.633 18.0694 -5.55112e-17
569 1 41.7731 51.1061 -5.55112e-17
570 1 139.297 46.4523 -5.55112e-17
571 1 126.08 115.346 -5.55112e-17
572 1 155.41 86.9065 -5.55112e-17
573 1 56.9734 74.4549 -5.55112e-17
574 1 172.163 109.611 -5.55112e-17
575 1 2.27769 47.9667 -5.55112e-17
576 1 155.333 133.527 -5.55112e-17
577 1 157.352 97.3895 -5.55112e-17
578 1 161.328 192.177 -5.55112e-17
579 1 43.214 28.9281 -5.55112e-17
580 1 136.634 50.5589 -5.55112e-17
581 1 178.533 172.767 -5.55112e-17
582 1 182.275 60.0603 -5.55112e-17
583 1 110.796 121.543 -5.55112e-17
584 2 13.7767 32.2727 -5.55112e-17
585 1 94.4869 95.4936 -5.55112e-17
586 1 82.9033 211.959 -5.55112e-17
587 1 103.046 161.517 -5.55112e-17
588 1 190.612 129.07 -5.55112e-17
589 1 140.777 192.537 -5.55112e-17
590 1 33.6736 180.705 -5.55112e-17
591 1 93.0103 156.623 -5.55112e-17
592 1 54.0891 2.69374 -5.55112e-17
593 1 95.4719 33.9269 -5.55112e-17
594 1 214.561 117.829 -5.55112e-17
595 1 11.4189 125.043 -5.55112e-17
596 1 57.6523 216.057 -5.55112e-17
597 2 46.3022 152.992 -5.55112e-17
598 1 218.035 170.362 -5.55112e-17
599 1 189.434 143.948 -5.55112e-17
600 1 137.121 48.0319 -5.55112e-17
601 1 11.2551 156.694 -5.55112e-17
602 1 198.708 27.7088 -5.55112e-17
603 1 163.269 111.037 -5.55112e-17
604 1 173.037 212.492 -5.55112e-17
605 2 118.569 115.357 -5.55112e-17
606 1 119.089 200.02 -5.55112e-17
607 2 19.4882 56.4324 -5.55112e-17
608 1 187.168 142.738 -5.55112e-17
609 1 163.327 125.29 -5.55112e-17
610 1 87.8127 161.547 -5.55112e-17
611 1 86.1622 168.205 -5.55112e-17
612 1 214.919 210.779 -5.55112e-17
613 1 90.7456 173.543 -5.55112e-17
614 2 40.4721 173.706 -5.55112e-17
615 1 104.49 74.1197 -5.55112e-17
616 1 203.698 101.375 -5.55112e-17
617 1 85.1122 19.4591 -5.55112e-17
618 1 175.808 212.333 -5.55112e-17
619 1 145.674 47.4365 -5.55112e-17
620 1 97.0249 3.76298 -5.55112e-17
621 1 133.732 41.7336 -5.55112e-17
622 1 7.98087 6.59558 -5.55112e-17
623 1 20.9044 25.8724 -5.55112e-17
624 1 2.02433 120.232 -5.55112e-17
625 1 42.4352 156.172 -5.55112e-17
626 1 44.5851 204.321 -5.55112e-17
627 1 14.2776 160.772 -5.55112e-17
628 1 18.1791 19.024 -5.55112e-17
629 1 121.646 55.2373 -5.55112e-17
630 2 136.783 185.6 -5.55112e-17
631 1 194.553 105.47 -5.55112e-17
632 1 178.823 13.4401 -5.55112e-17
633 1 193.399 208.712 -5.55112e-17
634 1 144.783 174.826 -5.55112e-17
635 1 217.261 168.081 -5.55112e-17
636 1 161.157 14.0458 -5.55112e-17
637 1 23.5079 25.6284 -5.55112e-17
638 1 204.427 143.932 -5.55112e-17
639 2 108.682 71.0983 -5.55112e-17
640 1 123.856 71.777 -5.55112e-17
641 1 98.9947 218.711 -5.55112e-17
642 1 114.23 213.625 -5.55112e-17
643 2 27.6866 56.7622 -5.55112e-17
644 1 1.9831 151.571 -5.55112e-17
645 1 11.3032 108.603 -5.55112e-17
646 2 218.219 196.94 -5.55112e-17
647 1 41.4097 4.81904 -5.55112e-17
648 1 53.736 43.6037 -5.55112e-17
649 2 155.8 165.849 -5.55112e-17
650 1 74.2936 52.6807 -5.55112e-17
651 1 59.7069 63.588 -5.55112e-17
652 1 161.519 185.039 -5.55112e-17
653 1 12.9916 72.0925 -5.55112e-17
654 1 25.2032 201.348 -5.55112e-17
655 2 104.715 147.193 -5.55112e-17
656 1 132.528 12.9902 -5.55112e-17
657 2 90.9091 62.6331 -5.55112e-17
658 1 182.263 80.1028 -5.55112e-17
659 2 184.951 87.7018 -5.55112e-17
660 1 126.574 124.67 -5.55112e-17
661 1 163.117 201.169 -5.55112e-17
662 1 192.129 14.7689 -5.55112e-17
663 1 161.248 79.2762 -5.55112e-17
664 1 200.668 105.156 -5.55112e-17
665 1 88.3703 127.847 -5.55112e-17
666 2 132.998 64.9368 -5.55112e-17
667 1 58.2017 200.977 -5.55112e-17
668 2 199.64 118.539 -5.55112e-17
669 1 160.211 68.9808 -5.55112e-17
670 1 49.3012 29.1639 -5.55112e-17
671 2 23.7731 7.3525 -5.55112e-17
672 1 29.1718 88.0242 -5.55112e-17
673 1 208.969 61.951 -5.55112e-17
674 1 50.8995 123.309 -5.55112e-17
675 1 204.52 37.6359 -5.55112e-17
676 1 149.404 202.884 -5.55112e-17
677 1 173.072 202.867 -5.55112e-17
678 1 123.192 20.0834 -5.55112e-17
679 2 80.1598 200.32 -5.55112e-17
680 1 52.3996 35.7211 -5.55112e-17
681 2 53.7406 189.671 -5.55112e-17
682 1 3.34375 158.36 -5.55112e-17
683 1 77.593 217.409 -5.55112e-17
684 1 199.508 30.2397 -5.55112e-17
685 1 158.353 75.665 -5.55112e-17
686 1 81.2768 146.545 -5.55112e-17
687 1 138.077 180.032 -5.55112e-17
688 1 212.362 54.4186 -5.55112e-17
689 2 34.6809 60.7829 -5.55112e-17
690 1 114.14 143.221 -5.55112e-17
691 1 201.056 115.98 -5.55112e-17
692 1 211.228 171.026 -5.55112e-17
693 1 8.41676 190.787 -5.55112e-17
694 1 210.807 111.85 -5.55112e-17
695 1 161.407 21.4162 -5.55112e-17
696 1 50.3183 149.444 -5.55112e-17
697 1 214.653 122.155 -5.55112e-17
698 1 41.1169 105.539 -5.55112e-17
699 1 134.608 0.572694 -5.55112e-17
700 1 80.5942 60.0086 -5.55112e-17
701 1 213.501 99.499 -5.55112e-17
702 1 151.129 154.548 -5.55112e-17
703 2 35.1006 70.7996 -5.55112e-17
704 1 104.661 30.6169 -5.55112e-17
705 2 30.5649 130.865 -5.55112e-17
706 1 180.368 107.909 -5.55112e-17
707 1 101.268 135.048 -5.55112e-17
708 1 113.768 155.119 -5.55112e-17
709 1 216.057 56.9141 -5.55112e-17
710 1 17.2486 45.8242 -5.55112e-17
711 1 45.2247 130.417 -5.55112e-17
712 1 139.442 49.0714 -5.55112e-17
713 1 130.15 167.638 -5.55112e-17
714 1 111.042 33.8344 -5.55112e-17
715 1 97.0733 193.478 -5.55112e-17
716 1 88.4167 177.783 -5.55112e-17
717 1 12.9803 169.819 -5.55112e-17
718 1 65.8379 106.134 -5.55112e-17
719 2 85.5821 60.9108 -5.55112e-17
720 1 115.969 97.3115 -5.55112e-17
721 1 17.6805 135.506 -5.55112e-17
722 1 49.4763 83.8336 -5.55112e-17
723 2 40.1523 29.32 -5.55112e-17
724 1 196.428 148.332 -5.55112e-17
725 1 115.695 8.72372 -5.55112e-17
726 1 10.9702 81.3513 -5.55112e-17
727 1 104.886 175.627 -5.55112e-17
728 2 200.719 10.8197 -5.55112e-17
729 1 41.0258 128.691 -5.55112e-17
730 1 109.024 144.03 -5.55112e-17
731 1 4.3725 89.4245 -5.55112e-17
732 1 138.345 102.242 -5.55112e-17
733 1 210.644 52.56 -5.55112e-17
734 1 190.517 108.986 -5.55112e-17
735 1 190.854 203.536 -5.55112e-17
736 2 15.3847 210.791 -5.55112e-17
737 1 123.917 181.674 -5.55112e-17
738 1 188.379 115.385 -5.55112e-17
739 1 204.377 4.2523 -5.55112e-17
740 1 9.1304 106.903 -5.55112e-17
741 2 1.32929 82.0139 -5.55112e-17
742 1 194.711 6.70081 -5.55112e-17
743 1 76.3883 186.139 -5.55112e-17
744 2 119.532 59.5834 -5.55112e-17
745 1 93.0225 177.705 -5.55112e-17
746 1 59.9603 195.965 -5.55112e-17
747 2 70.2815 98.3666 -5.55112e-17
748 1 72.4651 210.546 -5.55112e-17
749 1 70.8252 8.93519 -5.55112e-17
750 1 38.0356 117.994 -5.55112e-17
751 1 87.0825 51.2936 -5.55112e-17
752 1 188.033 15.8243 -5.55112e-17
753 1 73.9048 213.195 -5.55112e-17
754 1 51.7434 2.70674 -5.55112e-17
755 1 202.509 103.393 -5.55112e-17
756 2 173.139 1.1908 -5.55112e-17
757 1 194.152 192.618 -5.55112e-17
758 1 97.1149 153.278 -5.55112e-17
759 1 17.6064 195.042 -5.55112e-17
760 1 111.248 189.715 -5.55112e-17
761 1 121.555 104.591 -5.55112e-17
762 1 43.2072 48.9979 -5.55112e-17
763 1 74.641 96.6606 -5.55112e-17
764 2 21.6415 190.291 -5.55112e-17
765 1 147 196.847 -5.55112e-17
766 1 77.3475 21.8991 -5.55112e-17
767 1 36.2535 113.42 -5.55112e-17
768 1 194.567 30.1472 -5.55112e-17
769 1 184.575 83.9783 -5.55112e-17
770 2 26.1621 131.281 -5.55112e-17
771 1 45.7194 86.4087 -5.55112e-17
772 1 34.5088 153.433 -5.55112e-17
773 1 135.77 65.5043 -5.55112e-17
774 1 159.571 197.071 -5.55112e-17
775 1 71.7774 11.4718 -5.55112e-17
776 1 146.257 116.528 -5.55112e-17
777 1 116.397 29.9068 -5.55112e-17
778 1 47.3146 75.0836 -5.55112e-17
779 1 107.307 170.349 -5.55112e-17
780 1 170.098 83.8752 -5.55112e-17
781 1 208.844 71.5519 -5.55112e-17
782 1 14.0271 59.5941 -5.55112e-17
783 1 143.866 163.874 -5.55112e-17
784 2 171.959 86.1592 -5.55112e-17
785 1 67.9325 143.092 -5.55112e-17
786 1 74.8781 124.014 -5.55112e-17
787 1 213.793 104.171 -5.55112e-17
788 1 182.445 99.8557 -5.55112e-17
789 2 205.521 76.0318 -5.55112e-17
790 1 156.391 141.341 -5.55112e-17
791 2 118.626 156.406 -5.55112e-17
792 2 39.9618 115.572 -5.55112e-17
793 2 138.412 165.123 -5.55112e-17
794 1 51.2797 42.4383 -5.55112e-17
795 1 73.7324 155.794 -5.55112e-17
796 1 90.8941 126.426 -5.55112e-17
797 1 71.4257 183.326 -5.55112e-17
798 2 103.791 121.502 -5.55112e-17
799 2 213.414 31.0475 -5.55112e-17
800 2 140.985 68.1866 -5.55112e-17
801 1 108.985 191.077 -5.55112e-17
802 1 124.073 77.125 -5.55112e-17
803 1 9.00677 15.5639 -5.55112e-17
804 2 114.399 6.09037 -5.55112e-17
805 1 116.961 164.006 -5.55112e-17
806 1 41.9489 143.988 -5.55112e-17
807 2 5.37216 5.30965 -5.55112e-17
808 1 83.7701 177.964 -5.55112e-17
809 2 70.7724 189.065 -5.55112e-17
810 1 145.828 76.2772 -5.55112e-17
811 1 25.1785 203.685 -5.55112e-17
812 1 36.1993 203.336 -5.55112e-17
813 2 31.4973 178.931 -5.55112e-17
814 1 87.9266 45.8965 -5.55112e-17
815 1 147.598 43.2832 -5.55112e-17
816 1 40.7543 198.667 -5.55112e-17
817 1 26.8277 66.1686 -5.55112e-17
818 1 17.2909 100.09 -5.55112e-17
819 1 72.7264 160.727 -5.55112e-17
820 1 98.172 91.511 -5.55112e-17
821 1 72.1187 96.0863 -5.55112e-17
822 2 49.4832 106.044 -5.55112e-17
823 2 199.096 81.301 -5.55112e-17
824 1 111.102 166.336 -5.55112e-17
825 1 63.099 47.0193 -5.55112e-17
826 1 150.165 114.489 -5.55112e-17
827 1 71.9661 100.879 -5.55112e-17
828 1 39.0509 211.065 -5.55112e-17
829 1 75.3803 92.6651 -5.55112e-17
830 1 193.065 128.261 -5.55112e-17
831 1 11.1943 127.626 -5.55112e-17
832 1 146.525 61.4033 -5.55112e-17
833 1 1.43091 79.1112 -5.55112e-17
834 1 1.20221 60.0222 -5.55112e-17
835 1 42.269 178.799 -5.55112e-17
836 1 39.743 145.73 -5.55112e-17
837 1 172.082 142.22 -5.55112e-17
838 1 105.575 27.4364 -5.55112e-17
839 2 177.285 112.039 -5.55112e-17
840 1 111.604 16.1479 -5.55112e-17
841 2 109.313 141.121 -5.55112e-17
842 1 91.4414 24.0527 -5.55112e-17
843 2 107.621 176.027 -5.55112e-17
844 1 201.964 193.098 -5.55112e-17
845 1 84.6312 175.515 -5.55112e-17
846 1 108.08 101.556 -5.55112e-17
847 1 191.631 156.869 -5.55112e-17
848 1 160.07 28.2212 -5.55112e-17
849 1 60.5951 212.548 -5.55112e-17
850 1 27.2893 93.704 -5.55112e-17
851 1 218.923 194.246 -5.55112e-17
852 1 48.0419 123.161 -5.55112e-17
853 1 137.573 167.965 -5.55112e-17
854 1 96.2625 86.7774 -5.55112e-17
855 1 15.4459 72.2765 -5.55112e-17
856 1 159.377 20.3073 -5.55112e-17