ITEM: TIMESTEP
0
ITEM: NUMBER OF ATOMS
7200
ITEM: BOX BOUNDS xy xz yz pp pp pp
0.0000000000000000e+00 2.1900000000000000e+02 0.0000000000000000e+00
0.0000000000000000e+00 2.1900000000000000e+02 0.0000000000000000e+00
-3.6499999999999999e-01 3.6499999999999999e-01 0.0000000000000000e+00
ITEM: ATOMS id type x y z
1 1 103.435 54.0318 -5.55112e-17
2 1 170.305 207.817 -5.55112e-17
3 1 208.62 158.855 -5.55112e-17
4 1 56.6783 140.29 -5.55112e-17
5 1 202.886 144.127 -5.55112e-17
6 1 128.171 121.506 -5.55112e-17
7 1 16.7069 204.717 -5.55112e-17
8 2 138.59 151.69 -5.55112e-17
9 1 133.016 179.243 -5.55112e-17
10 2 101.9 191.464 -5.55112e-17
11 1 178.532 23.5208 -5.55112e-17
12 1 214.657 54.2274 -5.55112e-17
13 2 123.941 200.086 -5.55112e-17
14 1 137.541 140.678 -5.55112e-17
15 1 191.958 59.4828 -5.55112e-17
16 2 128.865 199.491 -5.55112e-17
17 1 197.017 81.4874 -5.55112e-17
18 2 118.77 10.1747 -5.55112e-17
19 1 208.22 143.646 -5.55112e-17
20 1 151.625 145.775 -5.55112e-17
21 1 50.993 197.907 -5.55112e-17
22 2 32.7553 144.367 -5.55112e-17
23 2 189.309 27.4344 -5.55112e-17
24 1 67.0244 197.137 -5.55112e-17
25 1 70.3021 172.941 -5.55112e-17
26 2 11.7913 175.396 -5.55112e-17
27 1 11.9159 180.979 -5.55112e-17
28 2 101.967 153.565 -5.55112e-17
29 1 181.625 180.922 -5.55112e-17
30 1 108.849 180.613 -5.55112e-17
31 1 65.2216 216.967 -5.55112e-17
32 1 47.4301 177.863 -5.55112e-17
33 1 91.6409 170.837 -5.55112e-17
34 1 15.0235 35.0581 -5.55112e-17
35 1 133.731 196.146 -5.55112e-17
36 1 65.1399 116.028 -5.55112e-17
37 2 201.62 37.9846 -5.55112e-17
38 1 205.163 157.856 -5.55112e-17
39 1 119.834 131.396 -5.55112e-17
40 1 191.798 33.9045 -5.55112e-17
41 1 118.668 55.5913 -5.55112e-17
42 1 180.316 117.924 -5.55112e-17
43 1 71.6419 72.6082 -5.55112e-17
44 1 178.64 38.3102 -5.55112e-17
45 1 138.079 50.3826 -5.55112e-17
46 1 37.3414 37.9523 -5.55112e-17
47 1 134.503 53.9679 -5.55112e-17
48 2 189.249 12.5219 -5.55112e-17
49 1 127.148 204.303 -5.55112e-17
50 1 129.117 164.79 -5.55112e-17
51 1 26.605 29.3582 -5.55112e-17
52 1 24.1643 52.8695 -5.55112e-17
53 1 29.2253 193.899 -5.55112e-17
54 1 170.936 97.423 -5.55112e-17
55 1 174.055 151.304 -5.55112e-17
56 1 114.15 211.068 -5.55112e-17
57 2 200.717 76.0852 -5.55112e-17
58 1 174.968 177.908 -5.55112e-17
59 1 191.308 75.5841 -5.55112e-17
60 2 6.63502 82.9926 -5.55112e-17
61 2 217.456 67.0793 -5.55112e-17
62 1 188.679 100.156 -5.55112e-17
63 1 172.279 185.415 -5.55112e-17
64 1 151.84 187.624 -5.55112e-17
65 1 157.834 209.522 -5.55112e-17
66 1 187.044 65.774 -5.55112e-17
67 1 37.5218 7.16389 -5.55112e-17
68 1 60.3244 46.7237 -5.55112e-17
69 1 84.7519 209.562 -5.55112e-17
70 1 13.5681 107.965 -5.55112e-17
71 1 203.371 159.666 -5.55112e-17
72 1 130.758 183.813 -5.55112e-17
73 1 147 179.707 -5.55112e-17
74 1 37.5518 10.1102 -5.55112e-17
75 2 110.046 46.4934 -5.55112e-17
76 1 51.2522 41.0648 -5.55112e-17
77 1 162.561 32.014 -5.55112e-17
78 1 45.2536 69.172 -5.55112e-17
79 2 186.885 208.522 -5.55112e-17
80 1 161.005 160.809 -5.55112e-17
81 1 127.269 50.7474 -5.55112e-17
82 1 100.043 204.538 -5.55112e-17
83 2 135.295 24.361 -5.55112e-17
84 1 211.769 32.1365 -5.55112e-17
85 1 72.7373 157.559 -5.55112e-17
86 1 167.162 57.6412 -5.55112e-17
87 1 102.479 148.322 -5.55112e-17
88 1 101.685 156.504 -5.55112e-17
89 2 207.767 192.006 -5.55112e-17
90 2 10.1456 72.1481 -5.55112e-17
91 1 145.702 133.307 -5.55112e-17
92 2 7.96092 169.9 -5.55112e-17
93 1 16.1477 211.994 -5.55112e-17
94 2 87.0953 66.536 -5.55112e-17
95 1 202.466 217.863 -5.55112e-17
96 1 19.5647 16.2477 -5.55112e-17
97 1 109.167 161.627 -5.55112e-17
98 1 120.474 41.8382 -5.55112e-17
99 1 48.4938 161.396 -5.55112e-17
100 1 42.9562 70.3054 -5.55112e-17
101 1 40.7083 34.5639 -5.55112e-17
102 1 152.366 19.2514 -5.55112e-17
103 1 35.202 189.439 -5.55112e-17
104 1 142.639 97.5226 -5.55112e-17
105 1 59.0993 27.8404 -5.55112e-17
106 1 187.124 119.227 -5.55112e-17
107 2 39.4093 218.63 -5.55112e-17
108 1 194.679 199.883 -5.55112e-17
109 1 113.039 70.3675 -5.55112e-17
110 1 133.507 122.602 -5.55112e-17
111 1 4.41701 214.491 -5.55112e-17
112 1 117.533 115.821 -5.55112e-17
113 1 153.191 33.6042 -5.55112e-17
114 1 93.2271 177.457 -5.55112e-17
115 1 58.4148 92.224 -5.55112e-17
116 2 38.3913 145.587 -5.55112e-17
117 1 202.764 164.513 -5.55112e-17
118 1 91.6946 27.0252 -5.55112e-17
119 2 114.483 96.4918 -5.55112e-17
120 1 213.524 131.418 -5.55112e-17
121 1 184.823 18.3474 -5.55112e-17
122 1 33.4734 137.277 -5.55112e-17
123 1 135.505 142.647 -5.55112e-17
124 1 160.018 117.741 -5.55112e-17
125 1 176.931 126.397 -5.55112e-17
126 1 176.034 182.878 -5.55112e-17
127 1 212.085 54.2633 -5.55112e-17
128 1 143.596 126.84 -5.55112e-17
129 1 1.2338 185.863 -5.55112e-17
130 1 121.062 93.0073 -5.55112e-17
131 1 30.9534 207.934 -5.55112e-17
132 2 123.91 184.034 -5.55112e-17
133 1 86.773 135.908 -5.55112e-17
134 1 133.613 2.54193 -5.55112e-17
135 1 72.5688 143.538 -5.55112e-17
136 1 26.6452 97.7195 -5.55112e-17
137 1 116.918 20.128 -5.55112e-17
138 1 125.58 115.651 -5.55112e-17
139 1 4.21349 118.747 -5.55112e-17
140 2 159.699 200.191 -5.55112e-17
141 1 119.275 145.19 -5.55112e-17
142 2 78.1265 195.301 -5.55112e-17
143 1 19.0268 84.2762 -5.55112e-17
144 2 22.5737 129.247 -5.55112e-17
145 1 179.478 106.363 -5.55112e-17
146 1 108.993 120.065 -5.55112e-17
147 1 149.905 212.056 -5.55112e-17
148 1 37.8498 83.8239 -5.55112e-17
149 1 74.1588 188.643 -5.55112e-17
150 1 139.308 16.3191 -5.55112e-17
151 1 42.0934 184.258 -5.55112e-17
152 1 205.993 76.1413 -5.55112e-17
153 2 89.0183 180.427 -5.55112e-17
154 1 201.522 78.9372 -5.55112e-17
155 1 137.738 36.1643 -5.55112e-17
156 2 24.9099 171.877 -5.55112e-17
157 1 202.843 113.579 -5.55112e-17
158 1 168.675 78.7369 -5.55112e-17
159 1 99.456 127.968 -5.55112e-17
160 1 96.599 68.7653 -5.55112e-17
161 1 91.7433 153.649 -5.55112e-17
162 1 9.20332 64.9048 -5.55112e-17
163 1 196.41 17.9509 -5.55112e-17
164 1 49.6477 75.0364 -5.55112e-17
165 1 44.9423 177.921 -5.55112e-17
166 2 149.666 69.4117 -5.55112e-17
167 1 113.004 149.516 -5.55112e-17
168 1 188.074 30.3927 -5.55112e-17
169 1 211.671 104.122 -5.55112e-17
170 1 106.023 10.1162 -5.55112e-17
171 1 200.161 15.6231 -5.55112e-17
172 1 150.73 214.598 -5.55112e-17
173 1 71.3044 136.487 -5.55112e-17
174 1 178.639 197.402 -5.55112e-17
175 2 194.345 117.292 -5.55112e-17
176 1 165.345 195.573 -5.55112e-17
177 2 78.1513 16.3781 -5.55112e-17
178 1 104.133 78.8703 -5.55112e-17
179 1 195.833 88.7308 -5.55112e-17
180 1 5.42449 170.339 -5.55112e-17
181 1 22.4116 111.232 -5.55112e-17
182 2 203.455 214.818 -5.55112e-17
183 1 56.3016 137.703 -5.55112e-17
184 1 18.3773 13.9504 -5.55112e-17
185 2 213.245 7.03099 -5.55112e-17
186 2 160.694 3.83037 -5.55112e-17
187 1 152.592 5.23375 -5.55112e-17
188 1 21.459 203.919 -5.55112e-17
189 1 77.4899 68.8001 -5.55112e-17
190 2 147.581 202.16 -5.55112e-17
191 1 22.4968 142.881 -5.55112e-17
192 2 127.018 99.9251 -5.55112e-17
193 2 45.2078 188.233 -5.55112e-17
194 1 154.469 91.4722 -5.55112e-17
195 1 183.575 153.86 -5.55112e-17
196 1 89.3968 215.114 -5.55112e-17
197 1 67.0503 49.3719 -5.55112e-17
198 2 75.1161 107.618 -5.55112e-17
199 1 143.419 213.664 -5.55112e-17
200 1 99.1051 190.806 -5.55112e-17
201 2 37.518 53.9428 -5.55112e-17
202 1 133.181 109.876 -5.55112e-17
203 1 26.0363 154.362 -5.55112e-17
204 1 122.452 207.532 -5.55112e-17
205 2 181.767 18.906 -5.55112e-17
206 1 124.161 197.072 -5.55112e-17
207 1 85.3001 137.747 -5.55112e-17
208 1 149.478 134.957 -5.55112e-17
209 1 141.517 77.8042 -5.55112e-17
210 1 179.91 164.035 -5.55112e-17
211 2 218.45 103.098 -5.55112e-17
212 1 104.318 81.3077 -5.55112e-17
213 1 170.635 83.7215 -5.55112e-17
214 1 192.674 64.4509 -5.55112e-17
215 1 155.321 25.3914 -5.55112e-17
216 1 148.568 0.0209846 -5.55112e-17
217 1 45.9026 202.862 -5.55112e-17
218 2 124.989 149.714 -5.55112e-17
219 1 120.8 140.32 -5.55112e-17
220 2 27.8514 129.716 -5.55112e-17
221 1 209.088 131.031 -5.55112e-17
222 1 6.79885 28.8734 -5.55112e-17
223 1 111.036 181.47 -5.55112e-17
224 2 14.3477 2.31748 -5.55112e-17
225 1 95.1005 140.477 -5.55112e-17
226 1 65.9187 138.722 -5.55112e-17
227 2 76.2125 186.463 -5.55112e-17
228 1 123.913 218.289 -5.55112e-17
229 1 94.7066 128.789 -5.55112e-17
230 1 18.0568 170.799 -5.55112e-17
231 1 103.189 111.27 -5.55112e-17
232 1 182.762 8.83996 -5.55112e-17
233 1 156.636 151.663 -5.55112e-17
234 1 183.182 84.2287 -5.55112e-17
235 1 217.41 53.5631 -5.55112e-17
236 1 94.5545 58.4757 -5.55112e-17
237 1 197.226 85.8963 -5.55112e-17
238 1 52.9651 143.358 -5.55112e-17
239 2 63.4161 175.182 -5.55112e-17
240 1 158.848 101.358 -5.55112e-17
241 2 20.7155 170.453 -5.55112e-17
242 2 14.2269 9.965 -5.55112e-17
243 2 145.854 35.2229 -5.55112e-17
244 1 15.8981 144.185 -5.55112e-17
245 1 100.512 188.913 -5.55112e-17
246 1 164.947 122.827 -5.55112e-17
247 1 129.952 103.783 -5.55112e-17
248 1 88.1758 63.5303 -5.55112e-17
249 1 204.886 209.126 -5.55112e-17
250 2 42.5214 9.53916 -5.55112e-17
251 1 101.537 7.30395 -5.55112e-17
252 1 31.4647 51.7967 -5.55112e-17
253 1 126.516 181.735 -5.55112e-17
254 2 155.068 111.67 -5.55112e-17
255 1 13.4723 4.96901 -5.55112e-17
256 1 141.342 30.0738 -5.55112e-17
257 1 22.6275 184.463 -5.55112e-17
258 2 77.8407 49.5798 -5.55112e-17
259 1 208.084 16.047 -5.55112e-17
260 1 201.219 145.867 -5.55112e-17
261 1 166.001 95.5096 -5.55112e-17
262 1 182.162 110.88 -5.55112e-17
263 1 35.7647 26.5028 -5.55112e-17
264 1 51.6177 27.581 -5.55112e-17
265 1 153.947 180.269 -5.55112e-17
266 1 146.079 83.58 -5.55112e-17
267 1 140.729 159.455 -5.55112e-17
268 1 53.4189 71.3013 -5.55112e-17
269 1 6.54102 103.337 -5.55112e-17
270 1 213.994 85.869 -5.55112e-17
271 1 4.23261 155.235 -5.55112e-17
272 1 194.888 168.532 -5.55112e-17
273 1 58.1004 135.864 -5.55112e-17
274 2 23.315 145.55 -5.55112e-17
275 1 4.74668 90.9077 -5.55112e-17
276 2 2.09029 203.04 -5.55112e-17
277 2 177.873 54.4531 -5.55112e-17
278 1 148.288 213.79 -5.55112e-17
279 2 171.628 59.8106 -5.55112e-17
280 1 155.445 216.828 -5.55112e-17
281 1 153.138 162.343 -5.55112e-17
282 1 196.662 211.914 -5.55112e-17
283 1 40.9626 179.622 -5.55112e-17
284 1 125.211 154.714 -5.55112e-17
285 1 182.636 188.18 -5.55112e-17
286 2 97.6985 166.493 -5.55112e-17
287 1 212.577 124.031 -5.55112e-17
288 1 32.7502 214.622 -5.55112e-17
289 1 72.5967 155.181 -5.55112e-17
290 1 30.4739 189.597 -5.55112e-17
291 1 174.441 36.6665 -5.55112e-17
292 2 57.346 150.913 -5.55112e-17
293 2 17.5255 89.7733 -5.55112e-17
294 1 192.663 201.246 -5.55112e-17
295 1 155.796 63.3966 -5.55112e-17
296 1 54.0131 34.0745 -5.55112e-17
297 1 158.976 183.361 -5.55112e-17
298 1 19.1397 205.224 -5.55112e-17
299 1 130.882 141.469 -5.55112e-17
300 2 176.095 96.8333 -5.55112e-17
301 1 163.987 73.6768 -5.55112e-17
302 1 103.045 140.607 -5.55112e-17
303 2 153.089 27.315 -5.55112e-17
304 2 12.9559 57.3322 -5.55112e-17
305 1 101.988 194.871 -5.55112e-17
306 1 143.611 100.165 -5.55112e-17
307 1 25.5444 156.825 -5.55112e-17
308 1 125.001 88.923 -5.55112e-17
309 2 62.9363 151.74 -5.55112e-17
310 1 0.724672 14.9509 -5.55112e-17
311 1 50.9464 105.124 -5.55112e-17
312 1 115.015 169.483 -5.55112e-17
313 2 150.754 172.065 -5.55112e-17
314 1 156.954 204.557 -5.55112e-17
315 1 188.729 140.85 -5.55112e-17
316 1 138.762 2.73366 -5.55112e-17
317 1 141.68 109.272 -5.55112e-17
318 1 117.641 194.263 -5.55112e-17
319 1 106.08 171.383 -5.55112e-17
320 1 198.579 13.6993 -5.55112e-17
321 1 66.5542 62.915 -5.55112e-17
322 1 37.6818 135.407 -5.55112e-17
323 1 80.0955 166.12 -5.55112e-17
324 1 101.772 118.909 -5.55112e-17
325 1 93.1611 138.125 -5.55112e-17
326 1 0.0481397 120.195 -5.55112e-17
327 2 154.678 97.1214 -5.55112e-17
328 1 80.7106 16.7254 -5.55112e-17
329 2 4.16846 53.8096 -5.55112e-17
330 1 179.332 67.3685 -5.55112e-17
331 1 100.839 42.7331 -5.55112e-17
332 2 146.924 73.6572 -5.55112e-17
333 1 37.3317 114.863 -5.55112e-17
334 1 152.608 36.0782 -5.55112e-17
335 1 43.3923 203.835 -5.55112e-17
336 1 5.53203 80.5349 -5.55112e-17
337 1 74.4038 166.866 -5.55112e-17
338 1 3.24909 28.4873 -5.55112e-17
339 1 137.721 204.22 -5.55112e-17
340 1 0.44981 41.042 -5.55112e-17
341 1 160.774 46.5356 -5.55112e-17
342 1 128.888 133.328 -5.55112e-17
343 1 122.95 103.954 -5.55112e-17
344 1 78.7275 76.4422 -5.55112e-17
345 1 87.0503 92.7704 -5.55112e-17
346 1 178.144 77.4169 -5.55112e-17
347 1 4.06485 103.147 -5.55112e-17
348 1 168.897 9.83043 -5.55112e-17
349 1 19.6257 115.22 -5.55112e-17
350 2 115.132 151.526 -5.55112e-17
351 1 173.834 5.74265 -5.55112e-17
352 1 91.5741 168.326 -5.55112e-17
353 1 65.969 120.358 -5.55112e-17
354 1 156.942 201.589 -5.55112e-17
355 1 185.991 202.685 -5.55112e-17
356 1 158.264 166.102 -5.55112e-17
357 1 172.821 53.9614 -5.55112e-17
358 1 110.49 17.5553 -5.55112e-17
359 1 11.2665 127.051 -5.55112e-17
360 1 186.089 182.793 -5.55112e-17
361 1 165.064 0.579897 -5.55112e-17
362 1 187.681 7.53791 -5.55112e-17
363 1 199.525 199.456 -5.55112e-17
364 2 198.678 93.499 -5.55112e-17
365 1 50.0427 95.7983 -5.55112e-17
366 1 163.704 137.7 -5.55112e-17
367 1 20.0562 142.1 -5.55112e-17
368 1 23.7111 67.5216 -5.55112e-17
369 2 211.515 126.703 -5.55112e-17
370 1 151.797 157.827 -5.55112e-17
371 1 109.118 193.971 -5.55112e-17
372 2 193.047 30.9616 -5.55112e-17
373 2 100.148 150.089 -5.55112e-17
374 1 152.155 10.564 -5.55112e-17
375 1 137.591 14.2703 -5.55112e-17
376 1 22.6151 148.39 -5.55112e-17
377 1 134.158 134.916 -5.55112e-17
378 1 137.173 69.3333 -5.55112e-17
379 1 26.5988 42.4664 -5.55112e-17
380 1 113.424 182.57 -5.55112e-17
381 1 158.894 135.451 -5.55112e-17
382 1 93.2558 63.543 -5.55112e-17
383 1 82.0114 157.09 -5.55112e-17
384 1 1.44636 158.363 -5.55112e-17
385 1 1.27744 115.341 -5.55112e-17
386 2 135.941 46.7124 -5.55112e-17
387 1 62.2199 157.153 -5.55112e-17
388 1 54.3916 131.663 -5.55112e-17
389 1 210.603 20.0335 -5.55112e-17
390 2 171.61 217.954 -5.55112e-17
391 2 154.679 156.474 -5.55112e-17
392 1 100.232 62.6389 -5.55112e-17
393 1 44.4073 117.139 -5.55112e-17
394 1 106.705 124.602 -5.55112e-17
395 1 11.2637 84.4698 -5.55112e-17
396 1 129.033 2.75864 -5.55112e-17
397 1 121.573 10.8776 -5.55112e-17
398 1 108.071 44.1543 -5.55112e-17
399 1 28.5092 8.24145 -5.55112e-17
400 1 58.5948 106.748 -5.55112e-17
401 1 104.482 209.112 -5.55112e-17
402 2 213.653 76.8463 -5.55112e-17
403 1 39.1829 126.183 -5.55112e-17
404 1 191.125 40.4069 -5.55112e-17
405 1 126.83 152.604 -5.55112e-17
406 1 38.0769 88.8524 -5.55112e-17
407 2 216.094 205.652 -5.55112e-17
408 1 161.864 188.029 -5.55112e-17
409 1 61.8642 159.656 -5.55112e-17
410 1 29.3536 53.3025 -5.55112e-17
411 1 196.43 37.8212 -5.55112e-17
412 1 186.165 39.6064 -5.55112e-17
413 1 74.0005 147.845 -5.55112e-17
414 1 13.1215 71.7418 -5.55112e-17
415 1 145.338 137.479 -5.55112e-17
416 1 43.5763 49.589 -5.55112e-17
417 1 150.281 140.353 -5.55112e-17
418 2 69.6212 53.7243 -5.55112e-17
419 1 104.12 46.2489 -5.55112e-17
420 2 198.841 33.0787 -5.55112e-17
421 1 131.433 111.95 -5.55112e-17
422 1 162.493 129.601 -5.55112e-17
423 2 22.7791 135.533 -5.55112e-17
424 1 153.28 59.8615 -5.55112e-17
425 1 111.762 212.424 -5.55112e-17
426 1 209.468 213.06 -5.55112e-17
427 1 167.597 7.65607 -5.55112e-17
428 1 160.403 123.186 -5.55112e-17
429 1 155.192 37.2416 -5.55112e-17
430 1 186.62 211.479 -5.55112e-17
431 1 41.4434 32.3109 -5.55112e-17
432 1 120.98 53.6144 -5.55112e-17
433 1 137.351 191.483 -5.55112e-17
434 1 33.3505 154.253 -5.55112e-17
435 1 205.241 165.507 -5.55112e-17
436 1 98.7061 73.0993 -5.55112e-17
437 1 10.5224 99.82 -5.55112e-17
438 2 40.4942 95.8391 -5.55112e-17
439 1 30.7964 78.7697 -5.55112e-17
440 1 215.548 177.634 -5.55112e-17
441 1 98.0166 98.8444 -5.55112e-17
442 1 120.374 116.175 -5.55112e-17
443 1 38.7323 149.332 -5.55112e-17
444 1 94.7572 146.648 -5.55112e-17
445 1 148.208 33.3379 -5.55112e-17
446 1 62.4439 186.34 -5.55112e-17
447 1 81.9416 25.8561 -5.55112e-17
448 1 107.449 61.8949 -5.55112e-17
449 1 108.338 49.0933 -5.55112e-17
450 1 33.0816 114.442 -5.55112e-17
451 1 181.805 89.6025 -5.55112e-17
452 1 80.5769 28.1032 -5.55112e-17
453 1 115.723 80.8961 -5.55112e-17
454 1 213.975 162.727 -5.55112e-17
455 1 180.768 4.2665 -5.55112e-17
456 1 101.136 202.235 -5.55112e-17
457 1 211.857 66.7675 -5.55112e-17
458 1 125.917 186.453 -5.55112e-17
459 1 129.382 87.4962 -5.55112e-17
460 1 108.01 92.971 -5.55112e-17
461 1 50.2395 86.3241 -5.55112e-17
462 1 160.3 62.6111 -5.55112e-17
463 1 121.871 210.353 -5.55112e-17
464 1 109.009 103.345 -5.55112e-17
465 1 197.145 3.30583 -5.55112e-17
466 1 198.94 204.072 -5.55112e-17
467 1 40.1365 186.003 -5.55112e-17
468 1 167.647 87.3567 -5.55112e-17
469 1 92.2169 7.14842 -5.55112e-17
470 1 82.105 190.663 -5.55112e-17
471 1 174.927 180.47 -5.55112e-17
472 1 131.197 80.0047 -5.55112e-17
473 1 133.649 7.82964 -5.55112e-17
474 1 164.356 183.89 -5.55112e-17
475 1 56.5634 164.526 -5.55112e-17
476 2 59.6445 41.57 -5.55112e-17
477 1 15.2788 202.474 -5.55112e-17
478 1 197.669 96.1467 -5.55112e-17
479 1 95.7285 89.7908 -5.55112e-17
480 1 21.2371 97.6206 -5.55112e-17
481 1 62.1783 145.181 -5.55112e-17
482 1 125.817 5.67709 -5.55112e-17
483 1 87.202 190.482 -5.55112e-17
484 2 115.926 70.1263 -5.55112e-17
485 1 168.837 201.19 -5.55112e-17
486 1 14.388 78.2329 -5.55112e-17
487 1 73.2349 117.017 -5.55112e-17
488 1 13.9094 131.572 -5.55112e-17
489 1 167.798 52.0644 -5.55112e-17
490 1 78.7704 202.842 -5.55112e-17
491 1 168.296 96.5617 -5.55112e-17
492 1 99.7216 144.481 -5.55112e-17
493 1 125.073 161.164 -5.55112e-17
494 1 101.95 121.459 -5.55112e-17
495 1 135.826 49.7651 -5.55112e-17
496 2 178.308 184.666 -5.55112e-17
497 1 174.064 155.487 -5.55112e-17
498 1 20.4868 213.535 -5.55112e-17
499 2 124.676 96.69 -5.55112e-17
500 1 200.532 165.774 -5.55112e-17
501 2 18.7402 201.858 -5.55112e-17
502 2 74.077 169.876 -5.55112e-17
503 1 109.127 137.567 -5.55112e-17
504 1 174.795 185.249 -5.55112e-17
505 1 40.06 55.5865 -5.55112e-17
506 1 72.1872 190.588 -5.55112e-17
507 1 7.95091 160.79 -5.55112e-17
508 1 120.399 203.384 -5.55112e-17
509 2 11.4667 120.277 -5.55112e-17
510 2 63.5737 168.987 -5.55112e-17
511 1 117.994 213.484 -5.55112e-17
512 2 49.5332 117.028 -5.55112e-17
513 1 29.2875 83.7835 -5.55112e-17
514 1 193.585 11.9375 -5.55112e-17
515 1 155.603 75.7927 -5.55112e-17
516 1 190.179 3.54506 -5.55112e-17
517 1 156.313 193.343 -5.55112e-17
518 2 176.313 115.069 -5.55112e-17
519 1 64.5596 44.8989 -5.55112e-17
520 2 5.23045 26.2477 -5.55112e-17
521 1 198.272 51.7933 -5.55112e-17
522 1 32.6678 170.121 -5.55112e-17
523 1 75.4706 212.173 -5.55112e-17
524 1 211.729 152.245 -5.55112e-17
525 1 42.1597 217.221 -5.55112e-17
526 1 167.256 49.0336 -5.55112e-17
527 1 67.2348 29.5543 -5.55112e-17
528 1 60.8556 100.083 -5.55112e-17
529 1 52.4331 112.335 -5.55112e-17
530 1 110.7 69.0074 -5.55112e-17
531 1 103.816 8.41906 -5.55112e-17
532 1 61.8474 181.345 -5.55112e-17
533 1 124.277 113.52 -5.55112e-17
534 1 199.294 2.25172 -5.55112e-17
535 1 146.017 1.0088 -5.55112e-17
536 1 109.437 38.863 -5.55112e-17
537 1 52.5959 4.42825 -5.55112e-17
538 1 133.75 215.855 -5.55112e-17
539 1 207.051 60.0562 -5.55112e-17
540 1 123.93 178.352 -5.55112e-17
541 1 215.396 218.472 -5.55112e-17
542 1 129.106 130.819 -5.55112e-17
543 1 160.959 23.1128 -5.55112e-17
544 1 191.488 210.321 -5.55112e-17
545 1 211.326 185.599 -5.55112e-17
546 1 177.263 94.273 -5.55112e-17
547 1 63.7491 211.437 -5.55112e-17
548 1 214.438 172.351 -5.55112e-17
549 1 35.7947 102.172 -5.55112e-17
550 2 195.51 74.296 -5.55112e-17
551 2 19.7222 94.5844 -5.55112e-17
552 2 128.158 53.6575 -5.55112e-17
553 1 138.768 30.693 -5.55112e-17
554 1 45.0166 80.2936 -5.55112e-17
555 2 3.37762 70.6325 -5.55112e-17
556 1 204.434 69.568 -5.55112e-17
557 1 5.16479 151.044 -5.55112e-17
558 1 152.551 178.447 -5.55112e-17
559 1 47.8912 18.8347 -5.55112e-17
560 1 190.543 29.9081 -5.55112e-17
561 1 47.9893 207.027 -5.55112e-17
562 1 209.075 161.526 -5.55112e-17
563 2 185.184 159.101 -5.55112e-17
564 1 70.6753 185.735 -5.55112e-17
565 1 197.309 209.149 -5.55112e-17
566 1 181.22 185.553 -5.55112e-17
567 1 147.067 52.7106 -5.55112e-17
568 1 18.8159 18.5673 -5.55112e-17
569 1 65.3207 199.257 -5.55112e-17
570 1 144.401 67.0181 -5.55112e-17
571 1 150.714 127.935 -5.55112e-17
572 1 161.616 73.3345 -5.55112e-17
573 1 7.98316 67.44 -5.55112e-17
574 1 155.658 131.147 -5.55112e-17
575 1 194.932 59.2468 -5.55112e-17
576 1 205.545 85.7512 -5.55112e-17
577 1 118.646 33.7556 -5.55112e-17
578 1 202.034 1.40582 -5.55112e-17
579 1 9.37447 208.105 -5.55112e-17
580 1 136.863 92.7222 -5.55112e-17
581 1 190.835 147.922 -5.55112e-17
582 1 124.592 47.3787 -5.55112e-17
583 1 149.669 112.821 -5.55112e-17
584 2 22.916 25.3709 -5.55112e-17
585 1 13.6837 118.587 -5.55112e-17
586 1 99.3642 174.7 -5.55112e-17
587 1 129.778 160.157 -5.55112e-17
588 1 205.381 137.602 -5.55112e-17
589 1 133.151 142.232 -5.55112e-17
590 1 88.9687 79.8431 -5.55112e-17
591 1 118.569 125.067 -5.55112e-17
592 1 38.7551 32.6622 -5.55112e-17
593 1 78.8682 6.2841 -5.55112e-17
594 1 150.947 160.183 -5.55112e-17
595 1 55.076 121.651 -5.55112e-17
596 1 127.441 10.4249 -5.55112e-17
597 2 76.7826 204.674 -5.55112e-17
598 1 25.734 213.777 -5.55112e-17
599 1 45.1186 167.712 -5.55112e-17
600 1 188.436 213.391 -5.55112e-17
601 1 54.8999 166.298 -5.55112e-17
602 1 166.462 36.7844 -5.55112e-17
603 1 189.547 85.8227 -5.55112e-17
604 1 77.6526 173.036 -5.55112e-17
605 2 75.5102 163.929 -5.55112e-17
606 1 165.913 186.144 -5.55112e-17
607 2 19.3523 136.406 -5.55112e-17
608 1 141.714 140.118 -5.55112e-17
609 1 142.888 116.182 -5.55112e-17
610 1 92.9735 110.72 -5.55112e-17
611 1 131.349 158.001 -5.55112e-17
612 1 36.1908 203.524 -5.55112e-17
613 1 119.904 174.807 -5.55112e-17
614 2 5.31493 3.01211 -5.55112e-17
615 1 78.2045 28.4772 -5.55112e-17
616 1 172.778 102.9 -5.55112e-17
617 1 86.1226 76.7727 -5.55112e-17
618 1 112.662 168.878 -5.55112e-17
619 1 133.142 29.3815 -5.55112e-17
620 1 106.914 210.144 -5.55112e-17
621 1 172.54 212.252 -5.55112e-17
622 1 84.0833 189.267 -5.55112e-17
623 1 181.313 206.599 -5.55112e-17
624 1 8.36685 167.173 -5.55112e-17
625 1 185.213 9.00209 -5.55112e-17
626 1 60.4017 200.869 -5.55112e-17
627 1 107.262 185.953 -5.55112e-17
628 1 45.2288 35.7504 -5.55112e-17
629 1 160.145 49.0185 -5.55112e-17
630 2 139.985 116.889 -5.55112e-17
631 1 44.1421 114.786 -5.55112e-17
632 1 194.394 26.8121 -5.55112e-17
633 1 180.006 194.905 -5.55112e-17
634 1 178.798 122.622 -5.55112e-17
635 1 67.5453 152.704 -5.55112e-17
636 1 152.08 155.522 -5.55112e-17
637 1 183.411 23.6507 -5.55112e-17
638 1 36.683 148.059 -5.55112e-17
639 2 49.9829 46.8574 -5.55112e-17
640 1 99.5227 13.9017 -5.55112e-17
641 1 171.894 37.2133 -5.55112e-17
642 1 71.5616 26.8748 -5.55112e-17
643 2 185.265 5.99107 -5.55112e-17
644 1 58.2611 199.583 -5.55112e-17
645 1 6.46593 165.368 -5.55112e-17
646 2 27.5459 183.425 -5.55112e-17
647 1 193.229 218.012 -5.55112e-17
648 1 58.5036 22.9304 -5.55112e-17
649 2 128.449 172.533 -5.55112e-17
650 1 189.713 24.5558 -5.55112e-17
651 1 61.2477 211.317 -5.55112e-17
652 1 159.86 120.199 -5.55112e-17
653 1 2.68981 123.306 -5.55112e-17
654 1 205.398 196.588 -5.55112e-17
655 2 121.09 123.519 -5.55112e-17
656 1 115.679 12.1276 -5.55112e-17
657 2 115.54 26.8681 -5.55112e-17
658 1 191.44 109.29 -5.55112e-17
659 2 156.663 86.8995 -5.55112e-17
660 1 93.9229 157.431 -5.55112e-17
661 1 130.426 107.199 -5.55112e-17
662 1 148.86 151.169 -5.55112e-17
663 1 159.982 82.8241 -5.55112e-17
664 1 85.2624 191.909 -5.55112e-17
665 1 79.2329 117.029 -5.55112e-17
666 2 126.816 37.3588 -5.55112e-17
667 1 82.8771 175.302 -5.55112e-17
668 2 159.188 138.482 -5.55112e-17
669 1 159.367 44.1629 -5.55112e-17
670 1 64.8258 65.099 -5.55112e-17
671 2 72.3026 183.076 -5.55112e-17
672 1 190.471 104.641 -5.55112e-17
673 1 177.897 65.284 -5.55112e-17
674 1 4.59316 105.479 -5.55112e-17
675 1 8.34837 196.22 -5.55112e-17
676 1 187.666 168.69 -5.55112e-17
677 1 170.44 153.689 -5.55112e-17
678 1 151.353 150.634 -5.55112e-17
679 2 94.32 209.339 -5.55112e-17
680 1 53.3971 54.8268 -5.55112e-17
681 2 55.0182 2.55638 -5.55112e-17
682 1 48.3945 188.985 -5.55112e-17
683 1 59.6821 32.7774 -5.55112e-17
684 1 152.382 8.11023 -5.55112e-17
685 1 129.363 75.1764 -5.55112e-17
686 1 73.5083 131.91 -5.55112e-17
687 1 135.917 200.286 -5.55112e-17
688 1 170.355 76.7518 -5.55112e-17
689 2 57.3428 104.327 -5.55112e-17
690 1 123 125.503 -5.55112e-17
691 1 30.9742 192.269 -5.55112e-17
692 1 68.7926 170.825 -5.55112e-17
693 1 215.329 14.7725 -5.55112e-17
694 1 39.8087 176.646 -5.55112e-17
695 1 184.526 49.7168 -5.55112e-17
696 1 87.9118 145.493 -5.55112e-17
697 1 198.501 74.0052 -5.55112e-17
698 1 24.0126 152.579 -5.55112e-17
699 1 201.643 55.5012 -5.55112e-17
700 1 209.021 82.1782 -5.55112e-17
701 1 41.5212 133.819 -5.55112e-17
702 1 183.901 132.84 -5.55112e-17
703 2 212.643 155.006 -5.55112e-17
704 1 152.897 208.845 -5.55112e-17
705 2 94.3932 188.03 -5.55112e-17
706 1 201.411 118.553 -5.55112e-17
707 1 92.4915 108.115 -5.55112e-17
708 1 92.1975 143.225 -5.55112e-17
709 1 16.4762 61.5526 -5.55112e-17
710 1 216.644 121.584 -5.55112e-17
711 1 37.329 168.832 -5.55112e-17
712 1 169.86 41.8015 -5.55112e-17
713 1 106.242 94.7368 -5.55112e-17
714 1 148.568 50.5749 -5.55112e-17
715 1 143.537 210.852 -5.55112e-17
716 1 81.123 200.302 -5.55112e-17
717 1 68.3919 142.659 -5.55112e-17
718 1 206.58 130.317 -5.55112e-17
719 2 82.8776 52.735 -5.55112e-17
720 1 37.1029 140.364 -5.55112e-17
721 1 154.261 135.787 -5.55112e-17
722 1 67.8867 105.775 -5.55112e-17
723 2 83.7424 27.9904 -5.55112e-17
724 1 54.6632 152.199 -5.55112e-17
725 1 104.723 109.345 -5.55112e-17
726 1 190.895 83.6836 -5.55112e-17
727 1 112.23 194.293 -5.55112e-17
728 2 178.93 74.7472 -5.55112e-17
729 1 36.7749 159.206 -5.55112e-17
730 1 82.7011 137.534 -5.55112e-17
731 1 212.46 40.1466 -5.55112e-17
732 1 130.432 57.6821 -5.55112e-17
733 1 174.798 55.4659 -5.55112e-17
734 1 10.6206 66.8534 -5.55112e-17
735 1 12.9935 197.164 -5.55112e-17
736 2 19.6711 46.2353 -5.55112e-17
737 1 103.125 134.155 -5.55112e-17
738 1 182.517 163.696 -5.55112e-17
739 1 179.937 199.615 -5.55112e-17
740 1 78.5413 181.191 -5.55112e-17
741 2 197.713 161.626 -5.55112e-17
742 1 21.3702 18.2679 -5.55112e-17
743 1 131.484 214.385 -5.55112e-17
744 2 168.146 60.0825 -5.55112e-17
745 1 83.7147 78.2437 -5.55112e-17
746 1 119.183 6.95941 -5.55112e-17
747 2 4.52688 35.8868 -5.55112e-17
748 1 145.132 11.7373 -5.55112e-17
749 1 80.5642 207.451 -5.55112e-17
750 1 32.0685 149.764 -5.55112e-17
751 1 55.6949 91.8601 -5.55112e-17
752 1 155.715 161.731 -5.55112e-17
753 1 116.056 191.544 -5.55112e-17
754 1 54.2318 20.2951 -5.55112e-17
755 1 185.73 56.3458 -5.55112e-17
756 2 114.968 208.351 -5.55112e-17
757 1 5.77538 167.821 -5.55112e-17
758 1 12.6527 74.1049 -5.55112e-17
759 1 123.138 189.973 -5.55112e-17
760 1 129.556 123.798 -5.55112e-17
761 1 67.2494 58.5785 -5.55112e-17
762 1 5.79032 40.5642 -5.55112e-17
763 1 218.743 51.7068 -5.55112e-17
764 2 66.6716 175.927 -5.55112e-17
765 1 138.898 213.774 -5.55112e-17
766 1 30.1987 81.069 -5.55112e-17
767 1 42.6268 36.6093 -5.55112e-17
768 1 147.725 10.9775 -5.55112e-17
769 1 119.5 97.7376 -5.55112e-17
770 2 24.037 125.405 -5.55112e-17
771 1 23.0803 177.054 -5.55112e-17
772 1 76.4792 146.499 -5.55112e-17
773 1 90.4341 84.5332 -5.55112e-17
774 1 148.937 120.568 -5.55112e-17
775 1 96.819 186.459 -5.55112e-17
776 1 116.548 75.7877 -5.55112e-17
777 1 135.998 6.28715 -5.55112e-17
778 1 66.8074 32.3464 -5.55112e-17
779 1 30.3941 109.165 -5.55112e-17
780 1 165.489 64.3234 -5.55112e-17
781 1 155.032 94.1703 -5.55112e-17
782 1 30.4695 35.3565 -5.55112e-17
783 1 95.2933 74.8002 -5.55112e-17
784 2 106.903 117.245 -5.55112e-17
785 1 103.598 189.03 -5.55112e-17
786 1 28.0376 163.862 -5.55112e-17
787 1 22.0221 172.931 -5.55112e-17
788 1 150.202 103.24 -5.55112e-17
789 2 214.24 98.3595 -5.55112e-17
790 1 108.796 105.569 -5.55112e-17
791 2 124.459 118.615 -5.55112e-17
792 2 18.0991 146.712 -5.55112e-17
793 2 148.188 161.05 -5.55112e-17
794 1 47.0642 128.018 -5.55112e-17
795 1 110.515 163.968 -5.55112e-17
796 1 101.641 138.426 -5.55112e-17
797 1 123.994 215.438 -5.55112e-17
798 2 35.5579 97.329 -5.55112e-17
799 2 207.212 140.143 -5.55112e-17
800 2 150.736 61.393 -5.55112e-17
801 1 164.118 198.091 -5.55112e-17
802 1 80.4367 95.9512 -5.55112e-17
803 1 218.322 30.9886 -5.55112e-17
804 2 120.115 155.824 -5.55112e-17
805 1 111.733 108.769 -5.55112e-17
806 1 75.1357 172.694 -5.55112e-17
807 2 212.815 203.513 -5.55112e-17
808 1 80.5975 142.586 -5.55112e-17
809 2 103.28 216.319 -5.55112e-17
810 1 140.349 111.702 -5.55112e-17
811 1 209.284 184.494 -5.55112e-17
812 1 213.16 176.526 -5.55112e-17
813 2 51.354 211.023 -5.55112e-17
814 1 53.1876 74.2228 -5.55112e-17
815 1 188.941 206.29 -5.55112e-17
816 1 31.9909 210.395 -5.55112e-17
817 1 202.049 148.747 -5.55112e-17
818 1 173.159 145.578 -5.55112e-17
819 1 93.9299 135.778 -5.55112e-17
820 1 104.618 56.5214 -5.55112e-17
821 1 57.0245 114.788 -5.55112e-17
822 2 19.5261 177.843 -5.55112e-17
823 2 0.427315 125.47 -5.55112e-17
824 1 107.564 101.217 -5.55112e-17
825 1 42.0039 57.2709 -5.55112e-17
826 1 174.771 127.849 -5.55112e-17
827 1 44.324 156.118 -5.55112e-17
828 1 69.5964 39.3731 -5.55112e-17
829 1 45.935 50.5579 -5.55112e-17
830 1 206.457 180.705 -5.55112e-17
831 1 192.782 176.417 -5.55112e-17
832 1 126.931 15.4162 -5.55112e-17
833 1 5.14212 94.7359 -5.55112e-17
834 1 156.399 27.7161 -5.55112e-17
835 1 45.333 211.372 -5.55112e-17
836 1 35.0309 116.207 -5.55112e-17
837 1 185.292 200.083 -5.55112e-17
838 1 204.254 199.264 -5.55112e-17
839 2 6.93806 146.354 -5.55112e-17
840 1 72.7134 70.4523 -5.55112e-17
841 2 114.194 89.546 -5.55112e-17
842 1 174.947 27.0902 -5.55112e-17
843 2 137.97 186.288 -5.55112e-17
844 1 170.847 196.825 -5.55112e-17
845 1 67.5026 181.632 -5.55112e-17
846 1 95.9407 77.4696 -5.55112e-17
847 1 192.994 144.224 -5.55112e-17
848 1 132.386 65.2339 -5.55112e-17
849 1 91.8676 91.5311 -5.55112e-17
850 1 89.4756 157.301 -5.55112e-17
851 1 60.8512 162.065 -5.55112e-17
852 1 23.1989 102.449 -5.55112e-17
853 1 174.609 125.319 -5.55112e-17
854 1 70.6393 109.888 -5.55112e-17
855 1 187.444 49.9623 -5.55112e-17
856 1 75.0732 218.067 -5.55112e-17