ITEM: TIMESTEP
0
ITEM: NUMBER OF ATOMS
7200
ITEM: BOX BOUNDS xy xz yz pp pp pp
0.0000000000000000e+00 2.1900000000000000e+02 0.0000000000000000e+00
0.0000000000000000e+00 2.1900000000000000e+02 0.0000000000000000e+00
-3.6499999999999999e-01 3.6499999999999999e-01 0.0000000000000000e+00
ITEM: ATOMS id type x y z
1 1 12.1526 92.3123 -5.55112e-17
2 1 206.024 85.2893 -5.55112e-17
3 1 15.2598 208.615 -5.55112e-17
4 1 86.1749 164.302 -5.55112e-17
5 1 210.355 172.736 -5.55112e-17
6 1 50.9954 119.957 -5.55112e-17
7 1 51.0864 146.277 -5.55112e-17
8 2 74.9229 133.232 -5.55112e-17
9 1 65.1799 97.0843 -5.55112e-17
10 2 188.415 100.426 -5.55112e-17
11 1 60.426 30.7828 -5.55112e-17
12 1 3.02635 80.1673 -5.55112e-17
13 2 177.219 172.873 -5.55112e-17
14 1 186.948 18.7589 -5.55112e-17
15 1 216.875 55.1089 -5.55112e-17
16 2 20.5803 147.759 -5.55112e-17
17 1 178.591 82.6453 -5.55112e-17
18 2 211.519 0.312338 -5.55112e-17
19 1 134.145 2.29249 -5.55112e-17
20 1 218.282 186.852 -5.55112e-17
21 1 140.965 15.8008 -5.55112e-17
22 2 32.402 202.324 -5.55112e-17
23 2 100.59 63.4815 -5.55112e-17
24 1 23.8107 142.338 -5.55112e-17
25 1 97.1035 36.5549 -5.55112e-17
26 2 24.1337 133.328 -5.55112e-17
27 1 2.05593 69.9212 -5.55112e-17
28 2 158.642 140.622 -5.55112e-17
29 1 22.4956 65.8487 -5.55112e-17
30 1 132.505 153.922 -5.55112e-17
31 1 175.487 186.693 -5.55112e-17
32 1 51.6256 84.3238 -5.55112e-17
33 1 52.8228 160.108 -5.55112e-17
34 1 157.48 58.7121 -5.55112e-17
35 1 123.789 21.4576 -5.55112e-17
36 1 69.3507 122.519 -5.55112e-17
37 2 24.6293 15.496 -5.55112e-17
38 1 68.9856 74.7287 -5.55112e-17
39 1 0.437112 161.961 -5.55112e-17
40 1 217.146 140.863 -5.55112e-17
41 1 109.322 143.926 -5.55112e-17
42 1 212.19 36.4801 -5.55112e-17
43 1 129.612 195.239 -5.55112e-17
44 1 51.6146 148.735 -5.55112e-17
45 1 69.4495 127.296 -5.55112e-17
46 1 62.4406 173.703 -5.55112e-17
47 1 102.792 95.0563 -5.55112e-17
48 2 82.5819 134.519 -5.55112e-17
49 1 191.808 83.6134 -5.55112e-17
50 1 142.172 79.6157 -5.55112e-17
51 1 165.704 94.1673 -5.55112e-17
52 1 118.377 60.7064 -5.55112e-17
53 1 27.5945 154.422 -5.55112e-17
54 1 85.2934 133.757 -5.55112e-17
55 1 76.8736 76.2775 -5.55112e-17
56 1 43.1801 123.073 -5.55112e-17
57 2 2.13437 186.188 -5.55112e-17
58 1 167.374 32.6586 -5.55112e-17
59 1 113.363 19.4351 -5.55112e-17
60 2 53.7468 20.1405 -5.55112e-17
61 2 160.67 206.966 -5.55112e-17
62 1 173.473 148.882 -5.55112e-17
63 1 89.5397 157.311 -5.55112e-17
64 1 74.1218 128.303 -5.55112e-17
65 1 45.0902 134.482 -5.55112e-17
66 1 38.7295 73.5651 -5.55112e-17
67 1 204.03 196.633 -5.55112e-17
68 1 57.3687 68.4364 -5.55112e-17
69 1 177.032 164.806 -5.55112e-17
70 1 94.5511 85.1804 -5.55112e-17
71 1 118.532 38.9874 -5.55112e-17
72 1 189.434 6.29799 -5.55112e-17
73 1 210.458 157.254 -5.55112e-17
74 1 113.106 3.01819 -5.55112e-17
75 2 27.4444 59.254 -5.55112e-17
76 1 57.9858 42.5442 -5.55112e-17
77 1 209.937 25.5184 -5.55112e-17
78 1 101.105 30.4574 -5.55112e-17
79 2 151.105 106.147 -5.55112e-17
80 1 18.2165 175.338 -5.55112e-17
81 1 25.6096 54.2412 -5.55112e-17
82 1 153.878 210.905 -5.55112e-17
83 2 91.9025 164.756 -5.55112e-17
84 1 197.669 34.7237 -5.55112e-17
85 1 22.433 95.9007 -5.55112e-17
86 1 139.227 124.96 -5.55112e-17
87 1 64.5879 67.6886 -5.55112e-17
88 1 165.176 129.223 -5.55112e-17
89 2 187.41 52.851 -5.55112e-17
90 2 10.8586 34.8393 -5.55112e-17
91 1 116.271 132.974 -5.55112e-17
92 2 168.274 209.376 -5.55112e-17
93 1 98.4749 27.791 -5.55112e-17
94 2 90.9387 204.614 -5.55112e-17
95 1 5.78833 66.9336 -5.55112e-17
96 1 35.6175 183.024 -5.55112e-17
97 1 206.231 0.269601 -5.55112e-17
98 1 73.4371 205.464 -5.55112e-17
99 1 212.023 80.6268 -5.55112e-17
100 1 154.356 73.0133 -5.55112e-17
101 1 47.5779 78.54 -5.55112e-17
102 1 94.1108 75.2254 -5.55112e-17
103 1 102.464 174.665 -5.55112e-17
104 1 123.189 148.197 -5.55112e-17
105 1 213.777 126.882 -5.55112e-17
106 1 142.239 148.217 -5.55112e-17
107 2 44.8752 206.338 -5.55112e-17
108 1 165.336 174.185 -5.55112e-17
109 1 53.1065 54.2037 -5.55112e-17
110 1 89.9659 182.282 -5.55112e-17
111 1 195.287 17.9127 -5.55112e-17
112 1 179.041 166.178 -5.55112e-17
113 1 48.4378 190.841 -5.55112e-17
114 1 57.5515 169.149 -5.55112e-17
115 1 14.7162 123.147 -5.55112e-17
116 2 94.9477 31.7945 -5.55112e-17
117 1 58.3698 133.209 -5.55112e-17
118 1 204.32 87.0797 -5.55112e-17
119 2 175.935 74.0219 -5.55112e-17
120 1 147.588 187.413 -5.55112e-17
121 1 17.0389 166.049 -5.55112e-17
122 1 69.9383 135.254 -5.55112e-17
123 1 74.4598 68.9166 -5.55112e-17
124 1 188.748 182.866 -5.55112e-17
125 1 124.057 150.506 -5.55112e-17
126 1 129.539 202.695 -5.55112e-17
127 1 20.9794 8.1915 -5.55112e-17
128 1 129.635 163.229 -5.55112e-17
129 1 216.36 212.468 -5.55112e-17
130 1 177.737 92.9242 -5.55112e-17
131 1 178.551 130.134 -5.55112e-17
132 2 52.367 78.5753 -5.55112e-17
133 1 95.301 158.456 -5.55112e-17
134 1 114.455 124.196 -5.55112e-17
135 1 19.7564 135.158 -5.55112e-17
136 1 113.996 79.1193 -5.55112e-17
137 1 156.061 142.011 -5.55112e-17
138 1 164.321 66.9862 -5.55112e-17
139 1 85.5534 141.318 -5.55112e-17
140 2 197.342 41.7144 -5.55112e-17
141 1 78.6974 58.1312 -5.55112e-17
142 2 64.2429 125.707 -5.55112e-17
143 1 157.408 143.947 -5.55112e-17
144 2 96.4151 101.804 -5.55112e-17
145 1 132.93 20.9911 -5.55112e-17
146 1 213.169 121.996 -5.55112e-17
147 1 112.876 74.6091 -5.55112e-17
148 1 138.422 170.29 -5.55112e-17
149 1 51.3948 7.33572 -5.55112e-17
150 1 161.704 158.854 -5.55112e-17
151 1 34.5303 166.997 -5.55112e-17
152 1 136.438 144.25 -5.55112e-17
153 2 111.681 186.091 -5.55112e-17
154 1 22.8186 203.746 -5.55112e-17
155 1 174.375 6.87707 -5.55112e-17
156 2 180.258 157.63 -5.55112e-17
157 1 118.352 55.9731 -5.55112e-17
158 1 36.0415 210.981 -5.55112e-17
159 1 117.023 150.544 -5.55112e-17
160 1 90.2366 102.314 -5.55112e-17
161 1 212.965 34.0326 -5.55112e-17
162 1 137.025 107.042 -5.55112e-17
163 1 75.8354 23.2292 -5.55112e-17
164 1 146.595 71.361 -5.55112e-17
165 1 200.219 179.184 -5.55112e-17
166 2 9.30024 73.6395 -5.55112e-17
167 1 31.5867 80.7862 -5.55112e-17
168 1 42.9046 158.545 -5.55112e-17
169 1 60.786 153.204 -5.55112e-17
170 1 153.443 77.7547 -5.55112e-17
171 1 180.293 48.2916 -5.55112e-17
172 1 60.5706 27.5976 -5.55112e-17
173 1 102.999 64.5818 -5.55112e-17
174 1 36.4249 6.56374 -5.55112e-17
175 2 58.0155 65.3736 -5.55112e-17
176 1 64.9397 172.702 -5.55112e-17
177 2 151.531 202.814 -5.55112e-17
178 1 23.9165 188.969 -5.55112e-17
179 1 149.08 98.5177 -5.55112e-17
180 1 148.912 152.983 -5.55112e-17
181 1 134.761 146.278 -5.55112e-17
182 2 21.2127 176.108 -5.55112e-17
183 1 15.1883 38.3989 -5.55112e-17
184 1 142.634 156.506 -5.55112e-17
185 2 126.814 54.2411 -5.55112e-17
186 2 166.48 62.3448 -5.55112e-17
187 1 71.3557 176.233 -5.55112e-17
188 1 209.714 79.5218 -5.55112e-17
189 1 5.89914 104.156 -5.55112e-17
190 2 183.956 107.984 -5.55112e-17
191 1 80.6884 155.251 -5.55112e-17
192 2 74.9902 95.3576 -5.55112e-17
193 2 77.6365 162.056 -5.55112e-17
194 1 19.5958 130.541 -5.55112e-17
195 1 171.744 100.831 -5.55112e-17
196 1 103.801 195.451 -5.55112e-17
197 1 61.1855 106.262 -5.55112e-17
198 2 183.803 182.689 -5.55112e-17
199 1 29.3228 94.961 -5.55112e-17
200 1 97.1247 68.6581 -5.55112e-17
201 2 154.234 65.7726 -5.55112e-17
202 1 183.233 150.656 -5.55112e-17
203 1 127.544 105.773 -5.55112e-17
204 1 218.273 193.394 -5.55112e-17
205 2 14.4113 116.079 -5.55112e-17
206 1 204.447 147.425 -5.55112e-17
207 1 172.072 151.035 -5.55112e-17
208 1 163.513 45.2293 -5.55112e-17
209 1 98.1282 88.579 -5.55112e-17
210 1 142.154 167.783 -5.55112e-17
211 2 218.023 34.9222 -5.55112e-17
212 1 210.004 61.4195 -5.55112e-17
213 1 29.1184 31.6084 -5.55112e-17
214 1 216.308 62.4019 -5.55112e-17
215 1 201.244 3.05656 -5.55112e-17
216 1 149.826 20.3078 -5.55112e-17
217 1 122.119 197.154 -5.55112e-17
218 2 92.5452 22.0407 -5.55112e-17
219 1 82.2724 28.4173 -5.55112e-17
220 2 98.573 109.801 -5.55112e-17
221 1 146.776 51.1554 -5.55112e-17
222 1 95.8837 10.9296 -5.55112e-17
223 1 75.7478 198.849 -5.55112e-17
224 2 157.142 36.0363 -5.55112e-17
225 1 48.868 92.8733 -5.55112e-17
226 1 6.47398 47.747 -5.55112e-17
227 2 8.65819 59.9502 -5.55112e-17
228 1 90.375 135.418 -5.55112e-17
229 1 112.829 33.091 -5.55112e-17
230 1 194.839 145.757 -5.55112e-17
231 1 106.898 23.1117 -5.55112e-17
232 1 152.798 136.175 -5.55112e-17
233 1 41.1846 36.6814 -5.55112e-17
234 1 187.953 160.186 -5.55112e-17
235 1 74.5555 76.0654 -5.55112e-17
236 1 153.898 80.2931 -5.55112e-17
237 1 93.7949 213.606 -5.55112e-17
238 1 87.8012 217.266 -5.55112e-17
239 2 10.2608 99.8884 -5.55112e-17
240 1 154.122 181.312 -5.55112e-17
241 2 7.61998 152.307 -5.55112e-17
242 2 62.5246 1.57963 -5.55112e-17
243 2 17.6961 212.515 -5.55112e-17
244 1 29.1138 162.055 -5.55112e-17
245 1 123.566 113.847 -5.55112e-17
246 1 87.5938 200.524 -5.55112e-17
247 1 40.8275 154.056 -5.55112e-17
248 1 66.6469 199.356 -5.55112e-17
249 1 17.8138 116.206 -5.55112e-17
250 2 73.0904 32.0269 -5.55112e-17
251 1 165.287 162.966 -5.55112e-17
252 1 91.8793 16.707 -5.55112e-17
253 1 73.4348 142.12 -5.55112e-17
254 2 106.145 3.44956 -5.55112e-17
255 1 152.523 8.41576 -5.55112e-17
256 1 123.111 166.524 -5.55112e-17
257 1 109.924 49.3618 -5.55112e-17
258 2 123.056 30.9615 -5.55112e-17
259 1 46.7977 189.094 -5.55112e-17
260 1 10.5448 64.0392 -5.55112e-17
261 1 146.012 124.44 -5.55112e-17
262 1 155.568 86.5358 -5.55112e-17
263 1 96.9558 177.889 -5.55112e-17
264 1 174.046 35.748 -5.55112e-17
265 1 201.642 111.912 -5.55112e-17
266 1 210.4 92.807 -5.55112e-17
267 1 191.775 99.2528 -5.55112e-17
268 1 113.59 41.1027 -5.55112e-17
269 1 87.2478 150.706 -5.55112e-17
270 1 77.1598 60.097 -5.55112e-17
271 1 197.216 60.8132 -5.55112e-17
272 1 204.448 209.727 -5.55112e-17
273 1 157.122 132.104 -5.55112e-17
274 2 116.156 83.3687 -5.55112e-17
275 1 103.4 75.9106 -5.55112e-17
276 2 88.2373 67.5714 -5.55112e-17
277 2 142.623 197.74 -5.55112e-17
278 1 63.8655 11.4679 -5.55112e-17
279 2 16.3048 65.0879 -5.55112e-17
280 1 134.871 172.529 -5.55112e-17
281 1 33.414 48.6329 -5.55112e-17
282 1 217.938 128.504 -5.55112e-17
283 1 145.046 6.94363 -5.55112e-17
284 1 208.662 86.0094 -5.55112e-17
285 1 204.642 69.4748 -5.55112e-17
286 2 20.6536 218.613 -5.55112e-17
287 1 137.708 32.5066 -5.55112e-17
288 1 191.195 9.7391 -5.55112e-17
289 1 12.2821 12.9111 -5.55112e-17
290 1 209.249 166.561 -5.55112e-17
291 1 90.4733 3.53644 -5.55112e-17
292 2 147.094 150.634 -5.55112e-17
293 2 30.6259 106.436 -5.55112e-17
294 1 74.444 194.018 -5.55112e-17
295 1 58.3746 116.25 -5.55112e-17
296 1 136.094 114.612 -5.55112e-17
297 1 149.26 81.1112 -5.55112e-17
298 1 158.145 129.787 -5.55112e-17
299 1 111.967 130.028 -5.55112e-17
300 2 66.3355 47.3225 -5.55112e-17
301 1 122.284 23.6248 -5.55112e-17
302 1 74.7747 109.339 -5.55112e-17
303 2 108.304 149.465 -5.55112e-17
304 2 62.4337 97.4348 -5.55112e-17
305 1 89.9348 207.503 -5.55112e-17
306 1 130.914 200.598 -5.55112e-17
307 1 115.545 86.2211 -5.55112e-17
308 1 169.112 34.5652 -5.55112e-17
309 2 88.7456 148.275 -5.55112e-17
310 1 214.176 71.2765 -5.55112e-17
311 1 151.065 138.334 -5.55112e-17
312 1 85.4852 139.048 -5.55112e-17
313 2 24.4798 81.7187 -5.55112e-17
314 1 183.345 187.664 -5.55112e-17
315 1 140.287 120.599 -5.55112e-17
316 1 204.762 168.847 -5.55112e-17
317 1 90.8045 49.412 -5.55112e-17
318 1 87.9406 70.3853 -5.55112e-17
319 1 97.6081 166.239 -5.55112e-17
320 1 154.976 112.573 -5.55112e-17
321 1 55.8115 32.3375 -5.55112e-17
322 1 41.8411 93.579 -5.55112e-17
323 1 216.718 118.419 -5.55112e-17
324 1 181.981 170.436 -5.55112e-17
325 1 39.4177 163.737 -5.55112e-17
326 1 23.3992 73.426 -5.55112e-17
327 2 141.949 213.853 -5.55112e-17
328 1 114.508 64.108 -5.55112e-17
329 2 106.232 108.528 -5.55112e-17
330 1 45.039 100.328 -5.55112e-17
331 1 54.5171 37.5688 -5.55112e-17
332 2 85.2775 120.56 -5.55112e-17
333 1 150.259 155.277 -5.55112e-17
334 1 208.932 69.2805 -5.55112e-17
335 1 1.33616 60.0402 -5.55112e-17
336 1 1.62748 193.491 -5.55112e-17
337 1 110.734 32.2036 -5.55112e-17
338 1 147.826 53.7058 -5.55112e-17
339 1 108.271 217.928 -5.55112e-17
340 1 0.491307 218.869 -5.55112e-17
341 1 162.002 7.45454 -5.55112e-17
342 1 192.682 165.217 -5.55112e-17
343 1 73.2437 22.3152 -5.55112e-17
344 1 27.4173 3.93125 -5.55112e-17
345 1 105.303 137.994 -5.55112e-17
346 1 217.405 181.249 -5.55112e-17
347 1 104.924 167.982 -5.55112e-17
348 1 152.873 74.9998 -5.55112e-17
349 1 81.4354 193.541 -5.55112e-17
350 2 163.368 9.98804 -5.55112e-17
351 1 103.738 148.189 -5.55112e-17
352 1 216.975 171.624 -5.55112e-17
353 1 122.321 89.3621 -5.55112e-17
354 1 204.84 124.639 -5.55112e-17
355 1 214.333 68.9001 -5.55112e-17
356 1 141.406 200.688 -5.55112e-17
357 1 2.94739 161.235 -5.55112e-17
358 1 66.7087 87.3214 -5.55112e-17
359 1 140.411 216.399 -5.55112e-17
360 1 210.104 41.6658 -5.55112e-17
361 1 149.994 188.331 -5.55112e-17
362 1 103.43 47.825 -5.55112e-17
363 1 38.8144 136.27 -5.55112e-17
364 2 189.639 62.8577 -5.55112e-17
365 1 19.0527 114.146 -5.55112e-17
366 1 104.886 130.344 -5.55112e-17
367 1 52.3309 125.453 -5.55112e-17
368 1 47.0502 9.96175 -5.55112e-17
369 2 105.837 216.086 -5.55112e-17
370 1 65.9855 190.453 -5.55112e-17
371 1 159.56 56.8736 -5.55112e-17
372 2 171.105 95.6556 -5.55112e-17
373 2 189.642 169.044 -5.55112e-17
374 1 139.988 88.9907 -5.55112e-17
375 1 110.615 188.346 -5.55112e-17
376 1 199.255 56.1898 -5.55112e-17
377 1 217.749 104.035 -5.55112e-17
378 1 209.421 154.771 -5.55112e-17
379 1 47.4495 199.282 -5.55112e-17
380 1 87.4657 53.0159 -5.55112e-17
381 1 133.927 164.676 -5.55112e-17
382 1 176.673 169.854 -5.55112e-17
383 1 163.243 169.891 -5.55112e-17
384 1 186.593 202.156 -5.55112e-17
385 1 125.471 35.8705 -5.55112e-17
386 2 129.55 39.296 -5.55112e-17
387 1 218.078 163.998 -5.55112e-17
388 1 193.493 200.656 -5.55112e-17
389 1 27.1148 82.6475 -5.55112e-17
390 2 194.741 115.217 -5.55112e-17
391 2 199.719 0.127266 -5.55112e-17
392 1 171.373 155.643 -5.55112e-17
393 1 139.5 163.633 -5.55112e-17
394 1 182.603 211.095 -5.55112e-17
395 1 93.9259 171.243 -5.55112e-17
396 1 48.1296 25.8459 -5.55112e-17
397 1 100.718 60.2662 -5.55112e-17
398 1 48.192 30.2064 -5.55112e-17
399 1 126.516 103.777 -5.55112e-17
400 1 17.3464 23.3789 -5.55112e-17
401 1 29.789 213.966 -5.55112e-17
402 2 49.9849 55.2511 -5.55112e-17
403 1 182.592 199.27 -5.55112e-17
404 1 80.2307 207.049 -5.55112e-17
405 1 45.2446 67.3214 -5.55112e-17
406 1 135.059 35.9009 -5.55112e-17
407 2 1.47782 173.395 -5.55112e-17
408 1 200.985 185.483 -5.55112e-17
409 1 75.5519 71.2263 -5.55112e-17
410 1 115.879 105.099 -5.55112e-17
411 1 47.3221 215.535 -5.55112e-17
412 1 159.947 135.971 -5.55112e-17
413 1 28.3786 21.1268 -5.55112e-17
414 1 85.9284 147.788 -5.55112e-17
415 1 157.761 125.734 -5.55112e-17
416 1 66.0135 130.376 -5.55112e-17
417 1 164.532 91.9667 -5.55112e-17
418 2 7.04604 191.377 -5.55112e-17
419 1 214.839 36.0951 -5.55112e-17
420 2 78.6246 125.059 -5.55112e-17
421 1 0.0125525 145.291 -5.55112e-17
422 1 30.0455 204.136 -5.55112e-17
423 2 6.34426 129.577 -5.55112e-17
424 1 183.839 94.7346 -5.55112e-17
425 1 193.6 143.426 -5.55112e-17
426 1 202.87 141.181 -5.55112e-17
427 1 214.829 26.989 -5.55112e-17
428 1 30.7668 61.7975 -5.55112e-17
429 1 203.358 212.641 -5.55112e-17
430 1 139.764 147.973 -5.55112e-17
431 1 177.196 210.516 -5.55112e-17
432 1 141.299 11.1555 -5.55112e-17
433 1 104.218 125.277 -5.55112e-17
434 1 58.6703 147.916 -5.55112e-17
435 1 59.6722 164.29 -5.55112e-17
436 1 198.371 161.972 -5.55112e-17
437 1 100.058 84.4106 -5.55112e-17
438 2 49.1863 12.134 -5.55112e-17
439 1 27.9929 198.911 -5.55112e-17
440 1 167.328 104.154 -5.55112e-17
441 1 7.02951 96.1402 -5.55112e-17
442 1 51.5223 23.3934 -5.55112e-17
443 1 117.29 142.722 -5.55112e-17
444 1 20.7726 88.7831 -5.55112e-17
445 1 105.163 208.234 -5.55112e-17
446 1 125.644 118.69 -5.55112e-17
447 1 9.1039 24.0815 -5.55112e-17
448 1 150.862 2.93307 -5.55112e-17
449 1 196.785 127.767 -5.55112e-17
450 1 4.7054 120.424 -5.55112e-17
451 1 23.5122 147.615 -5.55112e-17
452 1 185.563 179.708 -5.55112e-17
453 1 79.3416 76.4446 -5.55112e-17
454 1 2.27808 119.638 -5.55112e-17
455 1 34.7754 177.994 -5.55112e-17
456 1 125.921 85.9537 -5.55112e-17
457 1 21.2774 115.916 -5.55112e-17
458 1 100.923 176.954 -5.55112e-17
459 1 32.6667 2.0669 -5.55112e-17
460 1 29.0986 124.469 -5.55112e-17
461 1 105.946 170.718 -5.55112e-17
462 1 203.009 33.4403 -5.55112e-17
463 1 32.8053 86.0569 -5.55112e-17
464 1 173.512 47.8725 -5.55112e-17
465 1 191.321 78.7071 -5.55112e-17
466 1 64.5953 14.0678 -5.55112e-17
467 1 114.245 131.719 -5.55112e-17
468 1 101.039 108.111 -5.55112e-17
469 1 186.124 37.1765 -5.55112e-17
470 1 214.72 190.625 -5.55112e-17
471 1 148.186 112.912 -5.55112e-17
472 1 123.901 103.582 -5.55112e-17
473 1 39.1298 117.905 -5.55112e-17
474 1 163.279 30.0475 -5.55112e-17
475 1 148.521 40.6506 -5.55112e-17
476 2 198.94 173.701 -5.55112e-17
477 1 109.14 200.493 -5.55112e-17
478 1 193.703 210.495 -5.55112e-17
479 1 110.962 216.908 -5.55112e-17
480 1 142.183 38.0377 -5.55112e-17
481 1 139.57 117.67 -5.55112e-17
482 1 176.666 178.054 -5.55112e-17
483 1 148.48 145.503 -5.55112e-17
484 2 187.425 147.975 -5.55112e-17
485 1 165.224 184.588 -5.55112e-17
486 1 144.13 211.88 -5.55112e-17
487 1 209.885 124.962 -5.55112e-17
488 1 182.911 145.071 -5.55112e-17
489 1 94.7984 183.821 -5.55112e-17
490 1 41.714 74.6501 -5.55112e-17
491 1 40.467 31.511 -5.55112e-17
492 1 217.337 156.409 -5.55112e-17
493 1 133.284 75.9572 -5.55112e-17
494 1 127.772 83.6062 -5.55112e-17
495 1 171.367 98.4327 -5.55112e-17
496 2 6.12614 53.8474 -5.55112e-17
497 1 85.2327 68.856 -5.55112e-17
498 1 102.274 129.77 -5.55112e-17
499 2 107.796 86.5593 -5.55112e-17
500 1 73.7803 80.4494 -5.55112e-17
501 2 162.608 201.205 -5.55112e-17
502 2 69.4797 36.8559 -5.55112e-17
503 1 110.467 94.5869 -5.55112e-17
504 1 129.593 73.7133 -5.55112e-17
505 1 2.26362 132.646 -5.55112e-17
506 1 66.3836 152.135 -5.55112e-17
507 1 30.9122 119.577 -5.55112e-17
508 1 194.392 55.117 -5.55112e-17
509 2 53.2378 16.6895 -5.55112e-17
510 2 182.807 162.695 -5.55112e-17
511 1 164.048 217.796 -5.55112e-17
512 2 120.065 141.761 -5.55112e-17
513 1 142.643 121.049 -5.55112e-17
514 1 8.03155 19.1724 -5.55112e-17
515 1 215.802 20.5435 -5.55112e-17
516 1 61.7255 103.192 -5.55112e-17
517 1 214.458 176.661 -5.55112e-17
518 2 160.703 171.384 -5.55112e-17
519 1 97.4406 125.278 -5.55112e-17
520 2 185.004 159.183 -5.55112e-17
521 1 164.62 1.04641 -5.55112e-17
522 1 92.7176 131.288 -5.55112e-17
523 1 130.901 160.56 -5.55112e-17
524 1 62.9142 217.064 -5.55112e-17
525 1 48.9617 28.0325 -5.55112e-17
526 1 217.523 15.487 -5.55112e-17
527 1 133.91 71.7063 -5.55112e-17
528 1 183.391 37.5873 -5.55112e-17
529 1 89.4255 169.392 -5.55112e-17
530 1 205.578 187.412 -5.55112e-17
531 1 198.979 204.349 -5.55112e-17
532 1 77.2866 155.253 -5.55112e-17
533 1 91.5907 99.7274 -5.55112e-17
534 1 61.2267 79.8513 -5.55112e-17
535 1 123.052 169.17 -5.55112e-17
536 1 157.944 69.5435 -5.55112e-17
537 1 9.85543 12.1155 -5.55112e-17
538 1 32.1368 57.5078 -5.55112e-17
539 1 29.079 152.356 -5.55112e-17
540 1 193.396 155.795 -5.55112e-17
541 1 19.9883 60.4788 -5.55112e-17
542 1 70.9858 204.607 -5.55112e-17
543 1 65.5442 28.9948 -5.55112e-17
544 1 185.663 41.9921 -5.55112e-17
545 1 7.4141 56.622 -5.55112e-17
546 1 135.741 218.781 -5.55112e-17
547 1 194.651 34.807 -5.55112e-17
548 1 83.7187 67.1966 -5.55112e-17
549 1 56.8143 49.321 -5.55112e-17
550 2 28.1957 26.6816 -5.55112e-17
551 2 174.772 193.364 -5.55112e-17
552 2 177.45 132.726 -5.55112e-17
553 1 151.25 181.243 -5.55112e-17
554 1 79.8693 119.296 -5.55112e-17
555 2 36.0084 121.598 -5.55112e-17
556 1 117.287 187.714 -5.55112e-17
557 1 142.023 118.588 -5.55112e-17
558 1 18.6597 180.593 -5.55112e-17
559 1 18.3627 8.31685 -5.55112e-17
560 1 55.4552 28.0305 -5.55112e-17
561 1 43.6227 136.591 -5.55112e-17
562 1 79.0519 44.4091 -5.55112e-17
563 2 150.554 130.644 -5.55112e-17
564 1 142.151 13.765 -5.55112e-17
565 1 171.512 11.0532 -5.55112e-17
566 1 78.6053 74.2958 -5.55112e-17
567 1 67.4378 162.556 -5.55112e-17
568 1 36.3108 34.9306 -5.55112e-17
569 1 143.337 205.46 -5.55112e-17
570 1 81.8263 14.2452 -5.55112e-17
571 1 145.099 121.639 -5.55112e-17
572 1 207.392 18.0897 -5.55112e-17
573 1 86.0265 48.7422 -5.55112e-17
574 1 209.954 82.0461 -5.55112e-17
575 1 178.581 19.2913 -5.55112e-17
576 1 29.4715 15.4141 -5.55112e-17
577 1 118.111 70.757 -5.55112e-17
578 1 147.728 83.2734 -5.55112e-17
579 1 57.0058 90.8062 -5.55112e-17
580 1 129.883 209.305 -5.55112e-17
581 1 149.09 78.712 -5.55112e-17
582 1 170.216 93.024 -5.55112e-17
583 1 112.959 9.21056 -5.55112e-17
584 2 44.5122 64.671 -5.55112e-17
585 1 203.957 56.3031 -5.55112e-17
586 1 110.276 26.704 -5.55112e-17
587 1 2.7765 207.203 -5.55112e-17
588 1 212.144 72.5809 -5.55112e-17
589 1 209.618 76.8005 -5.55112e-17
590 1 127.128 170.729 -5.55112e-17
591 1 87.2301 42.3122 -5.55112e-17
592 1 69.6515 186.305 -5.55112e-17
593 1 133.176 58.8512 -5.55112e-17
594 1 214.693 1.02001 -5.55112e-17
595 1 204.601 137.539 -5.55112e-17
596 1 82.3383 34.3104 -5.55112e-17
597 2 109.277 65.6392 -5.55112e-17
598 1 83.4923 125.267 -5.55112e-17
599 1 61.9755 138.693 -5.55112e-17
600 1 80.9548 57.6222 -5.55112e-17
601 1 1.31061 181.102 -5.55112e-17
602 1 177.083 153.702 -5.55112e-17
603 1 103.743 122.895 -5.55112e-17
604 1 168.46 95.0326 -5.55112e-17
605 2 197.682 5.31003 -5.55112e-17
606 1 79.845 93.5287 -5.55112e-17
607 2 197.534 159.055 -5.55112e-17
608 1 13.9495 90.6647 -5.55112e-17
609 1 73.2489 170.703 -5.55112e-17
610 1 167.25 77.4809 -5.55112e-17
611 1 2.22527 214.081 -5.55112e-17
612 1 162.019 26.515 -5.55112e-17
613 1 39.5509 89.4321 -5.55112e-17
614 2 151.581 53.0737 -5.55112e-17
615 1 116.212 182.431 -5.55112e-17
616 1 117.195 58.3733 -5.55112e-17
617 1 192.809 208.159 -5.55112e-17
618 1 29.9722 200.611 -5.55112e-17
619 1 4.73595 56.4597 -5.55112e-17
620 1 68.4035 58.2825 -5.55112e-17
621 1 57.7677 8.50299 -5.55112e-17
622 1 83.9021 22.2812 -5.55112e-17
623 1 16.1748 196.028 -5.55112e-17
624 1 134.14 103.487 -5.55112e-17
625 1 95.0254 132.623 -5.55112e-17
626 1 204.925 72.1765 -5.55112e-17
627 1 202.297 65.1067 -5.55112e-17
628 1 23.5107 180.461 -5.55112e-17
629 1 199.348 176.689 -5.55112e-17
630 2 148.917 117.882 -5.55112e-17
631 1 190.847 105.826 -5.55112e-17
632 1 64.8236 107.819 -5.55112e-17
633 1 111.708 201.617 -5.55112e-17
634 1 183.285 63.2007 -5.55112e-17
635 1 182.09 60.8076 -5.55112e-17
636 1 206.931 45.1929 -5.55112e-17
637 1 68.0941 29.8026 -5.55112e-17
638 1 11.8721 181.86 -5.55112e-17
639 2 29.731 98.363 -5.55112e-17
640 1 11.891 123.339 -5.55112e-17
641 1 216.798 37.4202 -5.55112e-17
642 1 172.269 108.489 -5.55112e-17
643 2 59.6424 181.305 -5.55112e-17
644 1 139.148 152.29 -5.55112e-17
645 1 128.866 193.194 -5.55112e-17
646 2 142.688 128.484 -5.55112e-17
647 1 108.942 167.219 -5.55112e-17
648 1 169.55 179.524 -5.55112e-17
649 2 143.597 50.3566 -5.55112e-17
650 1 2.22133 72.2775 -5.55112e-17
651 1 20.1884 36.7575 -5.55112e-17
652 1 10.6655 169.952 -5.55112e-17
653 1 173.503 40.0573 -5.55112e-17
654 1 197.42 145.485 -5.55112e-17
655 2 86.9232 182.949 -5.55112e-17
656 1 113.408 72.0125 -5.55112e-17
657 2 109.632 212.368 -5.55112e-17
658 1 153.146 95.0465 -5.55112e-17
659 2 206.234 13.1208 -5.55112e-17
660 1 150.465 14.5963 -5.55112e-17
661 1 194.011 95.1802 -5.55112e-17
662 1 127.887 0.780626 -5.55112e-17
663 1 150.711 113.51 -5.55112e-17
664 1 180.794 1.55265 -5.55112e-17
665 1 75.5877 209.414 -5.55112e-17
666 2 47.7251 116.132 -5.55112e-17
667 1 15.4345 8.38913 -5.55112e-17
668 2 5.94353 50.3757 -5.55112e-17
669 1 86.8115 34.4665 -5.55112e-17
670 1 25.3055 61.2418 -5.55112e-17
671 2 158.507 87.4452 -5.55112e-17
672 1 34.0383 215.871 -5.55112e-17
673 1 176.788 175.581 -5.55112e-17
674 1 174.554 132.122 -5.55112e-17
675 1 9.83596 150.374 -5.55112e-17
676 1 16.1363 125.505 -5.55112e-17
677 1 161.79 187.883 -5.55112e-17
678 1 43.052 79.574 -5.55112e-17
679 2 77.3271 121.277 -5.55112e-17
680 1 106.978 173.364 -5.55112e-17
681 2 35.0072 58.1704 -5.55112e-17
682 1 77.3225 92.8581 -5.55112e-17
683 1 124.818 170.622 -5.55112e-17
684 1 5.62773 43.1431 -5.55112e-17
685 1 214.745 82.0005 -5.55112e-17
686 1 17.0112 6.25547 -5.55112e-17
687 1 25.3149 213.37 -5.55112e-17
688 1 33.1018 128.495 -5.55112e-17
689 2 54.5605 83.7444 -5.55112e-17
690 1 20.2656 157.941 -5.55112e-17
691 1 124.661 153.003 -5.55112e-17
692 1 176.661 105.725 -5.55112e-17
693 1 85.9687 55.3598 -5.55112e-17
694 1 42.6311 153.044 -5.55112e-17
695 1 183.185 42.6883 -5.55112e-17
696 1 4.27821 157.136 -5.55112e-17
697 1 209.688 189.757 -5.55112e-17
698 1 200.581 200.369 -5.55112e-17
699 1 145.8 204.573 -5.55112e-17
700 1 24.3642 123.92 -5.55112e-17
701 1 213.623 24.732 -5.55112e-17
702 1 173.694 72.25 -5.55112e-17
703 2 121.352 8.90108 -5.55112e-17
704 1 181.985 142.838 -5.55112e-17
705 2 62.7098 36.7005 -5.55112e-17
706 1 77.2186 51.556 -5.55112e-17
707 1 151.852 168.902 -5.55112e-17
708 1 98.5899 175.857 -5.55112e-17
709 1 54.8274 100.966 -5.55112e-17
710 1 120.302 138.969 -5.55112e-17
711 1 21.177 40.8392 -5.55112e-17
712 1 87.7576 60.6279 -5.55112e-17
713 1 65.8883 177.143 -5.55112e-17
714 1 159.301 26.1941 -5.55112e-17
715 1 43.1942 32.4214 -5.55112e-17
716 1 44.9512 156.82 -5.55112e-17
717 1 87.6382 142.719 -5.55112e-17
718 1 40.636 19.6096 -5.55112e-17
719 2 180.771 70.4386 -5.55112e-17
720 1 144.615 100.032 -5.55112e-17
721 1 217.01 138.077 -5.55112e-17
722 1 91.8864 126.621 -5.55112e-17
723 2 88.2058 104.148 -5.55112e-17
724 1 78.1283 78.7222 -5.55112e-17
725 1 168.516 3.33506 -5.55112e-17
726 1 206.174 39.996 -5.55112e-17
727 1 38.6081 35.8473 -5.55112e-17
728 2 179.293 169.03 -5.55112e-17
729 1 34.6156 101.896 -5.55112e-17
730 1 84.6418 169.819 -5.55112e-17
731 1 57.8998 157.977 -5.55112e-17
732 1 127.04 93.7357 -5.55112e-17
733 1 143.869 4.61493 -5.55112e-17
734 1 197.889 18.1875 -5.55112e-17
735 1 157.319 194.084 -5.55112e-17
736 2 42.4907 98.6393 -5.55112e-17
737 1 56.9676 171.396 -5.55112e-17
738 1 137.351 181.943 -5.55112e-17
739 1 182.78 179.857 -5.55112e-17
740 1 22.6266 83.6788 -5.55112e-17
741 2 87.2409 29.2583 -5.55112e-17
742 1 88.8373 165.308 -5.55112e-17
743 1 201.905 172.812 -5.55112e-17
744 2 71.8435 75.2015 -5.55112e-17
745 1 118.241 161.217 -5.55112e-17
746 1 73.5384 177.99 -5.55112e-17
747 2 63.9613 105.234 -5.55112e-17
748 1 192.739 28.6997 -5.55112e-17
749 1 119.538 129.05 -5.55112e-17
750 1 27.1466 205.414 -5.55112e-17
751 1 160.269 179.942 -5.55112e-17
752 1 56.1626 191.225 -5.55112e-17
753 1 5.37537 206.681 -5.55112e-17
754 1 55.27 159.053 -5.55112e-17
755 1 177.173 108.253 -5.55112e-17
756 2 175.6 207.923 -5.55112e-17
757 1 211.919 43.4246 -5.55112e-17
758 1 192.047 195.929 -5.55112e-17
759 1 173.233 117.924 -5.55112e-17
760 1 180.269 144.682 -5.55112e-17
761 1 27.2074 214.943 -5.55112e-17
762 1 0.730387 208.707 -5.55112e-17
763 1 17.6854 112.093 -5.55112e-17
764 2 200.398 213.039 -5.55112e-17
765 1 164.483 179.351 -5.55112e-17
766 1 90.4926 154.882 -5.55112e-17
767 1 102.538 208.79 -5.55112e-17
768 1 136.725 95.3459 -5.55112e-17
769 1 172.99 206.373 -5.55112e-17
770 2 49.6094 217.448 -5.55112e-17
771 1 61.5059 166.171 -5.55112e-17
772 1 90.5665 39.2574 -5.55112e-17
773 1 68.2199 19.8798 -5.55112e-17
774 1 148.401 198.565 -5.55112e-17
775 1 35.2436 113.935 -5.55112e-17
776 1 207.333 129.258 -5.55112e-17
777 1 201.028 109.382 -5.55112e-17
778 1 10.8766 119.98 -5.55112e-17
779 1 75.6646 85.24 -5.55112e-17
780 1 17.8788 158.342 -5.55112e-17
781 1 159.061 108.965 -5.55112e-17
782 1 78.1508 95.3075 -5.55112e-17
783 1 215.176 90.0923 -5.55112e-17
784 2 170.943 72.3616 -5.55112e-17
785 1 21.224 205.942 -5.55112e-17
786 1 28.1302 129.975 -5.55112e-17
787 1 174.848 210.666 -5.55112e-17
788 1 200.74 75.5565 -5.55112e-17
789 2 136.811 156.868 -5.55112e-17
790 1 205.397 114.955 -5.55112e-17
791 2 66.0407 9.81551 -5.55112e-17
792 2 95.352 53.5227 -5.55112e-17
793 2 25.7137 113.164 -5.55112e-17
794 1 167.663 129.501 -5.55112e-17
795 1 217.405 86.0342 -5.55112e-17
796 1 10.2734 165.344 -5.55112e-17
797 1 51.1228 158.492 -5.55112e-17
798 2 129.562 97.6836 -5.55112e-17
799 2 157.391 214.082 -5.55112e-17
800 2 132.962 38.0103 -5.55112e-17
801 1 92.8148 5.15647 -5.55112e-17
802 1 34.1051 157.07 -5.55112e-17
803 1 121.991 96.8499 -5.55112e-17
804 2 66.0177 42.1091 -5.55112e-17
805 1 207.718 134.245 -5.55112e-17
806 1 106.755 151.835 -5.55112e-17
807 2 2.07523 57.2539 -5.55112e-17
808 1 127.181 91.1284 -5.55112e-17
809 2 11.3521 195.421 -5.55112e-17
810 1 113.819 114.459 -5.55112e-17
811 1 17.6861 27.5039 -5.55112e-17
812 1 148.067 2.7297 -5.55112e-17
813 2 211.273 64.0569 -5.55112e-17
814 1 83.7953 73.4612 -5.55112e-17
815 1 190.157 66.1776 -5.55112e-17
816 1 121.659 108.636 -5.55112e-17
817 1 170.657 202.852 -5.55112e-17
818 1 158.213 43.3996 -5.55112e-17
819 1 30.1344 64.1577 -5.55112e-17
820 1 97.0147 182.795 -5.55112e-17
821 1 24.0894 165.065 -5.55112e-17
822 2 111.783 6.2909 -5.55112e-17
823 2 57.1376 57.6344 -5.55112e-17
824 1 213.313 29.1115 -5.55112e-17
825 1 111.646 53.3733 -5.55112e-17
826 1 157.229 66.9231 -5.55112e-17
827 1 72.8806 70.7423 -5.55112e-17
828 1 130.729 128.261 -5.55112e-17
829 1 218.822 73.8879 -5.55112e-17
830 1 171.978 18.4401 -5.55112e-17
831 1 24.1197 115.677 -5.55112e-17
832 1 119.871 93.1974 -5.55112e-17
833 1 143.971 97.4955 -5.55112e-17
834 1 43.2095 62.0678 -5.55112e-17
835 1 202.321 28.7358 -5.55112e-17
836 1 88.1742 56.5949 -5.55112e-17
837 1 132.352 137.097 -5.55112e-17
838 1 32.6804 114.311 -5.55112e-17
839 2 211.374 31.5819 -5.55112e-17
840 1 108.954 4.49986 -5.55112e-17
841 2 103.852 162.558 -5.55112e-17
842 1 83.315 83.5039 -5.55112e-17
843 2 76.0784 90.2205 -5.55112e-17
844 1 44.6187 139.168 -5.55112e-17
845 1 203.78 59.0741 -5.55112e-17
846 1 172.061 106.116 -5.55112e-17
847 1 73.7931 44.5605 -5.55112e-17
848 1 139.442 211.917 -5.55112e-17
849 1 170.057 8.99918 -5.55112e-17
850 1 59.4846 187.293 -5.55112e-17
851 1 183.373 110.871 -5.55112e-17
852 1 170.652 153.197 -5.55112e-17
853 1 197.673 86.6583 -5.55112e-17
854 1 183.606 72.5447 -5.55112e-17
855 1 27.2751 122.76 -5.55112e-17