ITEM: TIMESTEP
0
ITEM: NUMBER OF ATOMS
7200
ITEM: BOX BOUNDS xy xz yz pp pp pp
0.0000000000000000e+00 2.1900000000000000e+02 0.0000000000000000e+00
0.0000000000000000e+00 2.1900000000000000e+02 0.0000000000000000e+00
-3.6499999999999999e-01 3.6499999999999999e-01 0.0000000000000000e+00
ITEM: ATOMS id type x y z
1 1 91.9289 214.325 -5.55112e-17
2 1 119.626 141.038 -5.55112e-17
3 1 184.68 57.0251 -5.55112e-17
4 1 44.5753 99.7253 -5.55112e-17
5 1 51.0226 86.7856 -5.55112e-17
6 1 159.248 212.246 -5.55112e-17
7 1 31.1522 201.608 -5.55112e-17
8 2 126.901 128.082 -5.55112e-17
9 1 203.415 158.934 -5.55112e-17
10 2 13.2517 192.006 -5.55112e-17
11 1 120.889 16.6821 -5.55112e-17
12 1 10.0114 148.209 -5.55112e-17
13 2 164.242 95.9613 -5.55112e-17
14 1 105.606 98.9077 -5.55112e-17
15 1 4.84718 162.07 -5.55112e-17
16 2 129.712 29.0976 -5.55112e-17
17 1 110.088 17.9169 -5.55112e-17
18 2 57.2955 42.3388 -5.55112e-17
19 1 113.105 32.3291 -5.55112e-17
20 1 196.178 110.936 -5.55112e-17
21 1 87.9692 208.254 -5.55112e-17
22 2 46.3859 153.452 -5.55112e-17
23 2 211.832 40.2121 -5.55112e-17
24 1 137.87 200.321 -5.55112e-17
25 1 51.4056 215.665 -5.55112e-17
26 2 56.3326 172.488 -5.55112e-17
27 1 211.569 105.448 -5.55112e-17
28 2 34.3198 117.196 -5.55112e-17
29 1 207.92 197.893 -5.55112e-17
30 1 116.615 117.486 -5.55112e-17
31 1 190.481 203.349 -5.55112e-17
32 1 75.364 35.6126 -5.55112e-17
33 1 44.4034 164.085 -5.55112e-17
34 1 214.686 41.0069 -5.55112e-17
35 1 174.524 4.87203 -5.55112e-17
36 1 145.058 127.633 -5.55112e-17
37 2 111.341 61.9992 -5.55112e-17
38 1 136.333 158.272 -5.55112e-17
39 1 105.347 88.7991 -5.55112e-17
40 1 171.514 187.681 -5.55112e-17
41 1 117.563 54.5493 -5.55112e-17
42 1 217.211 124.615 -5.55112e-17
43 1 10.5729 27.5599 -5.55112e-17
44 1 182.284 18.5793 -5.55112e-17
45 1 181.8 40.3901 -5.55112e-17
46 1 210.625 16.3935 -5.55112e-17
47 1 83.5925 192.863 -5.55112e-17
48 2 188.508 196.365 -5.55112e-17
49 1 34.692 215.487 -5.55112e-17
50 1 58.2736 126.121 -5.55112e-17
51 1 210.423 42.3895 -5.55112e-17
52 1 184.842 184.797 -5.55112e-17
53 1 190.355 205.865 -5.55112e-17
54 1 117.877 136.532 -5.55112e-17
55 1 0.806156 164.281 -5.55112e-17
56 1 119.048 94.6865 -5.55112e-17
57 2 91.474 217.647 -5.55112e-17
58 1 55.0213 204.882 -5.55112e-17
59 1 196.915 4.74978 -5.55112e-17
60 2 154.173 88.2509 -5.55112e-17
61 2 15.949 178.104 -5.55112e-17
62 1 21.2518 139.337 -5.55112e-17
63 1 149.472 25.4705 -5.55112e-17
64 1 153.917 132.227 -5.55112e-17
65 1 145.355 178.779 -5.55112e-17
66 1 40.0341 112.537 -5.55112e-17
67 1 162.79 113.727 -5.55112e-17
68 1 54.226 21.8623 -5.55112e-17
69 1 97.791 194.791 -5.55112e-17
70 1 61.0551 113.735 -5.55112e-17
71 1 182.355 156.288 -5.55112e-17
72 1 107.79 144.279 -5.55112e-17
73 1 86.084 135.266 -5.55112e-17
74 1 46.0038 17.1663 -5.55112e-17
75 2 119.319 38.4183 -5.55112e-17
76 1 61.8874 51.5738 -5.55112e-17
77 1 213.351 177.518 -5.55112e-17
78 1 51.367 117.417 -5.55112e-17
79 2 190.297 15.941 -5.55112e-17
80 1 40.1603 144.677 -5.55112e-17
81 1 165.027 98.7727 -5.55112e-17
82 1 96.7078 190.461 -5.55112e-17
83 2 103.953 202.126 -5.55112e-17
84 1 192.32 56.4257 -5.55112e-17
85 1 60.9811 180.889 -5.55112e-17
86 1 162.312 87.1691 -5.55112e-17
87 1 101.41 76.5496 -5.55112e-17
88 1 174.425 181.694 -5.55112e-17
89 2 10.0268 73.3282 -5.55112e-17
90 2 201.37 124.489 -5.55112e-17
91 1 193.037 212.489 -5.55112e-17
92 2 186.878 191.459 -5.55112e-17
93 1 34.9098 29.0829 -5.55112e-17
94 2 75.382 16.7165 -5.55112e-17
95 1 216.179 93.1892 -5.55112e-17
96 1 182.297 88.4882 -5.55112e-17
97 1 55.302 1.34662 -5.55112e-17
98 1 107.819 1.36569 -5.55112e-17
99 1 122.016 155.07 -5.55112e-17
100 1 82.9681 61.4976 -5.55112e-17
101 1 79.5662 46.8256 -5.55112e-17
102 1 8.88313 151.039 -5.55112e-17
103 1 167.063 140.96 -5.55112e-17
104 1 171.203 78.3396 -5.55112e-17
105 1 114.393 36.6876 -5.55112e-17
106 1 90.2986 64.448 -5.55112e-17
107 2 204.088 8.62523 -5.55112e-17
108 1 180.175 30.7059 -5.55112e-17
109 1 156.986 61.5493 -5.55112e-17
110 1 157.263 72.5074 -5.55112e-17
111 1 68.5788 44.0514 -5.55112e-17
112 1 87.3843 109.893 -5.55112e-17
113 1 132.862 14.4661 -5.55112e-17
114 1 191.952 2.53005 -5.55112e-17
115 1 30.2771 168.862 -5.55112e-17
116 2 138.936 142.539 -5.55112e-17
117 1 172.547 138.955 -5.55112e-17
118 1 25.442 12.5754 -5.55112e-17
119 2 75.044 60.3537 -5.55112e-17
120 1 201.865 58.7195 -5.55112e-17
121 1 162.156 43.7615 -5.55112e-17
122 1 40.7035 158.136 -5.55112e-17
123 1 135.328 123.206 -5.55112e-17
124 1 197.252 35.2359 -5.55112e-17
125 1 93.5594 71.0627 -5.55112e-17
126 1 19.463 23.6051 -5.55112e-17
127 1 16.563 89.3853 -5.55112e-17
128 1 178.561 95.9459 -5.55112e-17
129 1 201.755 167.538 -5.55112e-17
130 1 89.0373 93.1695 -5.55112e-17
131 1 193.55 114.708 -5.55112e-17
132 2 211.954 215.033 -5.55112e-17
133 1 132.245 126.811 -5.55112e-17
134 1 120.16 10.8924 -5.55112e-17
135 1 152.348 120.652 -5.55112e-17
136 1 12.1133 76.2122 -5.55112e-17
137 1 190.017 199.324 -5.55112e-17
138 1 131.339 7.99934 -5.55112e-17
139 1 205.073 143.653 -5.55112e-17
140 2 168.881 186.741 -5.55112e-17
141 1 132.944 105.559 -5.55112e-17
142 2 23.6434 98.8721 -5.55112e-17
143 1 31.8124 124.825 -5.55112e-17
144 2 135.05 12.574 -5.55112e-17
145 1 68.9051 28.3649 -5.55112e-17
146 1 202.423 197.769 -5.55112e-17
147 1 141.141 169.925 -5.55112e-17
148 1 54.4635 141.943 -5.55112e-17
149 1 41.3682 18.1156 -5.55112e-17
150 1 151.916 26.0385 -5.55112e-17
151 1 37.4263 161.93 -5.55112e-17
152 1 193.371 143.034 -5.55112e-17
153 2 33.1044 207.844 -5.55112e-17
154 1 182.124 117.605 -5.55112e-17
155 1 144.085 36.993 -5.55112e-17
156 2 209.618 168.475 -5.55112e-17
157 1 188.681 73.2619 -5.55112e-17
158 1 12.3132 4.65259 -5.55112e-17
159 1 179.355 164.619 -5.55112e-17
160 1 44.5787 197.787 -5.55112e-17
161 1 41.4213 67.2809 -5.55112e-17
162 1 33.9744 178.293 -5.55112e-17
163 1 131.373 64.418 -5.55112e-17
164 1 116.892 88.0214 -5.55112e-17
165 1 52.3488 190.763 -5.55112e-17
166 2 191.399 48.9488 -5.55112e-17
167 1 133.24 1.62676 -5.55112e-17
168 1 172.838 141.453 -5.55112e-17
169 1 148.638 149.488 -5.55112e-17
170 1 59.0888 44.8555 -5.55112e-17
171 1 162.01 80.1365 -5.55112e-17
172 1 19.6832 46.0066 -5.55112e-17
173 1 65.3106 195.188 -5.55112e-17
174 1 10.8758 140.019 -5.55112e-17
175 2 167.473 147.756 -5.55112e-17
176 1 61.5381 166.802 -5.55112e-17
177 2 199.962 107.465 -5.55112e-17
178 1 65.1688 211.409 -5.55112e-17
179 1 142.131 123.252 -5.55112e-17
180 1 217.006 41.2678 -5.55112e-17
181 1 2.31735 100.38 -5.55112e-17
182 2 202.005 64.7116 -5.55112e-17
183 1 88.6665 114.545 -5.55112e-17
184 1 1.92148 168.743 -5.55112e-17
185 2 149.672 195.218 -5.55112e-17
186 2 126.398 115.684 -5.55112e-17
187 1 161.961 56.082 -5.55112e-17
188 1 155.139 185.415 -5.55112e-17
189 1 111.352 13.5805 -5.55112e-17
190 2 148.425 212.017 -5.55112e-17
191 1 111.504 56.2024 -5.55112e-17
192 2 119.443 86.8314 -5.55112e-17
193 2 100.074 153.514 -5.55112e-17
194 1 174.824 120.968 -5.55112e-17
195 1 10.4735 165.586 -5.55112e-17
196 1 215.607 74.9782 -5.55112e-17
197 1 36.1135 79.4029 -5.55112e-17
198 2 37.6054 97.6983 -5.55112e-17
199 1 168.829 77.5985 -5.55112e-17
200 1 50.0844 22.788 -5.55112e-17
201 2 206.558 80.2885 -5.55112e-17
202 1 185.909 177.5 -5.55112e-17
203 1 81.9058 141.706 -5.55112e-17
204 1 119.851 138.477 -5.55112e-17
205 2 204.773 109.911 -5.55112e-17
206 1 109.351 86.5728 -5.55112e-17
207 1 88.3922 100.458 -5.55112e-17
208 1 68.6824 115.252 -5.55112e-17
209 1 130.364 15.8073 -5.55112e-17
210 1 180.671 86.2297 -5.55112e-17
211 2 182.177 163.73 -5.55112e-17
212 1 108.389 139.928 -5.55112e-17
213 1 149.72 30.32 -5.55112e-17
214 1 124.367 51.7265 -5.55112e-17
215 1 105.146 181.713 -5.55112e-17
216 1 113.11 136.913 -5.55112e-17
217 1 94.6671 131.751 -5.55112e-17
218 2 160.058 121.507 -5.55112e-17
219 1 65.5608 154.034 -5.55112e-17
220 2 103.658 141.367 -5.55112e-17
221 1 215.928 136.983 -5.55112e-17
222 1 167.268 75.1261 -5.55112e-17
223 1 59.46 182.894 -5.55112e-17
224 2 1.13271 7.47581 -5.55112e-17
225 1 67.0313 90.165 -5.55112e-17
226 1 0.573546 201.676 -5.55112e-17
227 2 45.9254 190.958 -5.55112e-17
228 1 109.532 151.714 -5.55112e-17
229 1 4.42255 95.0432 -5.55112e-17
230 1 151.537 50.4315 -5.55112e-17
231 1 128.592 123.145 -5.55112e-17
232 1 187.914 170.143 -5.55112e-17
233 1 56.9407 30.6921 -5.55112e-17
234 1 124.928 28.4761 -5.55112e-17
235 1 164.183 156.368 -5.55112e-17
236 1 211.125 82.8135 -5.55112e-17
237 1 29.0646 128.709 -5.55112e-17
238 1 120.769 89.2968 -5.55112e-17
239 2 3.85316 184.512 -5.55112e-17
240 1 148.38 214.798 -5.55112e-17
241 2 88.7247 8.86039 -5.55112e-17
242 2 32.1968 216.439 -5.55112e-17
243 2 73.562 27.3489 -5.55112e-17
244 1 30.5563 137.757 -5.55112e-17
245 1 83.3234 118.942 -5.55112e-17
246 1 152.927 171.544 -5.55112e-17
247 1 158.468 144.946 -5.55112e-17
248 1 106.053 58.9754 -5.55112e-17
249 1 6.06353 208.479 -5.55112e-17
250 2 27.659 45.6822 -5.55112e-17
251 1 112.79 114.498 -5.55112e-17
252 1 0.387005 212 -5.55112e-17
253 1 101.223 91.4768 -5.55112e-17
254 2 126.097 164.125 -5.55112e-17
255 1 217.891 9.24004 -5.55112e-17
256 1 115.657 205.435 -5.55112e-17
257 1 204.34 185.676 -5.55112e-17
258 2 115.456 46.8359 -5.55112e-17
259 1 215.45 161.095 -5.55112e-17
260 1 78.3504 107.733 -5.55112e-17
261 1 167.349 153.399 -5.55112e-17
262 1 61.7639 89.6062 -5.55112e-17
263 1 202.204 105.465 -5.55112e-17
264 1 189.633 133.103 -5.55112e-17
265 1 13.1821 40.4371 -5.55112e-17
266 1 173.326 59.2331 -5.55112e-17
267 1 105.462 92.8762 -5.55112e-17
268 1 45.5226 6.75917 -5.55112e-17
269 1 33.8097 143.183 -5.55112e-17
270 1 89.6958 59.332 -5.55112e-17
271 1 151.524 34.5365 -5.55112e-17
272 1 194.878 180.949 -5.55112e-17
273 1 91.8916 57.4461 -5.55112e-17
274 2 104.869 95.7296 -5.55112e-17
275 1 32.9325 172.649 -5.55112e-17
276 2 17.0988 47.2661 -5.55112e-17
277 2 142.095 33.1833 -5.55112e-17
278 1 102.694 192.607 -5.55112e-17
279 2 82.4326 76.9834 -5.55112e-17
280 1 196.605 26.7107 -5.55112e-17
281 1 124.341 193.137 -5.55112e-17
282 1 86.2163 123.285 -5.55112e-17
283 1 102.272 144.473 -5.55112e-17
284 1 146.052 205.529 -5.55112e-17
285 1 25.659 182.742 -5.55112e-17
286 2 127.579 160.765 -5.55112e-17
287 1 217.557 11.8485 -5.55112e-17
288 1 172.884 76.3863 -5.55112e-17
289 1 84.9985 125.832 -5.55112e-17
290 1 35.224 189.648 -5.55112e-17
291 1 88.9388 151.631 -5.55112e-17
292 2 92.8784 177.478 -5.55112e-17
293 2 169.632 155.266 -5.55112e-17
294 1 120.193 54.0396 -5.55112e-17
295 1 118.438 12.6532 -5.55112e-17
296 1 23.0196 4.44621 -5.55112e-17
297 1 166.577 155.636 -5.55112e-17
298 1 201.563 4.48343 -5.55112e-17
299 1 82.9841 97.2886 -5.55112e-17
300 2 54.9683 163.118 -5.55112e-17
301 1 13.1398 16.0676 -5.55112e-17
302 1 100.997 134.062 -5.55112e-17
303 2 146.303 39.1307 -5.55112e-17
304 2 154.022 146.204 -5.55112e-17
305 1 130.956 100.253 -5.55112e-17
306 1 117.463 66.0208 -5.55112e-17
307 1 63.7637 141.684 -5.55112e-17
308 1 102.052 45.0782 -5.55112e-17
309 2 99.1195 144.469 -5.55112e-17
310 1 183.077 68.7606 -5.55112e-17
311 1 65.8035 83.1663 -5.55112e-17
312 1 120.197 97.0173 -5.55112e-17
313 2 181.182 2.91421 -5.55112e-17
314 1 130.677 23.5432 -5.55112e-17
315 1 37.4569 171.315 -5.55112e-17
316 1 131.465 192.116 -5.55112e-17
317 1 218.99 122.619 -5.55112e-17
318 1 163.954 189.263 -5.55112e-17
319 1 97.4349 169.943 -5.55112e-17
320 1 152.446 189.526 -5.55112e-17
321 1 4.57416 112.271 -5.55112e-17
322 1 117.508 92.3851 -5.55112e-17
323 1 61.7323 197.96 -5.55112e-17
324 1 122.849 4.2888 -5.55112e-17
325 1 132.424 184.137 -5.55112e-17
326 1 5.5205 133.978 -5.55112e-17
327 2 139.665 209.529 -5.55112e-17
328 1 112.199 191.973 -5.55112e-17
329 2 212.426 75.8272 -5.55112e-17
330 1 198.946 175.425 -5.55112e-17
331 1 211.576 26.4125 -5.55112e-17
332 2 164.934 44.0657 -5.55112e-17
333 1 19.9765 3.13372 -5.55112e-17
334 1 113.894 193.537 -5.55112e-17
335 1 13.3824 214.047 -5.55112e-17
336 1 198.124 99.1831 -5.55112e-17
337 1 0.590115 28.3378 -5.55112e-17
338 1 157.717 14.9351 -5.55112e-17
339 1 178.928 166.921 -5.55112e-17
340 1 143.07 118.07 -5.55112e-17
341 1 156.362 205.146 -5.55112e-17
342 1 168.698 143.137 -5.55112e-17
343 1 165.964 72.7323 -5.55112e-17
344 1 24.0063 29.3241 -5.55112e-17
345 1 85.5312 9.24093 -5.55112e-17
346 1 181.312 91.1162 -5.55112e-17
347 1 19.1435 42.1025 -5.55112e-17
348 1 126.763 215.965 -5.55112e-17
349 1 38.8364 132.133 -5.55112e-17
350 2 93.3879 142.21 -5.55112e-17
351 1 10.761 6.73704 -5.55112e-17
352 1 119.701 157.069 -5.55112e-17
353 1 76.1784 206.073 -5.55112e-17
354 1 160.728 199.359 -5.55112e-17
355 1 108.473 146.858 -5.55112e-17
356 1 199.698 180.119 -5.55112e-17
357 1 217.362 151.973 -5.55112e-17
358 1 27.5774 199.027 -5.55112e-17
359 1 7.99637 153.502 -5.55112e-17
360 1 31.931 149.612 -5.55112e-17
361 1 130.611 216.361 -5.55112e-17
362 1 14.1319 47.6573 -5.55112e-17
363 1 10.4932 153.073 -5.55112e-17
364 2 9.52438 117.984 -5.55112e-17
365 1 118.642 63.6117 -5.55112e-17
366 1 112.862 104.755 -5.55112e-17
367 1 213.576 89.4673 -5.55112e-17
368 1 213.584 107.12 -5.55112e-17
369 2 103.18 186.698 -5.55112e-17
370 1 83.4461 167.807 -5.55112e-17
371 1 66.8946 203.664 -5.55112e-17
372 2 178.685 59.4925 -5.55112e-17
373 2 130.863 0.224886 -5.55112e-17
374 1 160.042 54.5596 -5.55112e-17
375 1 133.144 161.647 -5.55112e-17
376 1 27.8618 0.238187 -5.55112e-17
377 1 203.349 20.0769 -5.55112e-17
378 1 22.8001 131.796 -5.55112e-17
379 1 17.1828 54.7074 -5.55112e-17
380 1 172.008 201.8 -5.55112e-17
381 1 195.413 128.331 -5.55112e-17
382 1 125.397 4.65385 -5.55112e-17
383 1 24.5134 95.9246 -5.55112e-17
384 1 57.0309 54.0365 -5.55112e-17
385 1 128.207 78.2096 -5.55112e-17
386 2 83.8814 14.9229 -5.55112e-17
387 1 188.689 212.809 -5.55112e-17
388 1 68.3852 153.975 -5.55112e-17
389 1 104.176 4.94828 -5.55112e-17
390 2 142.816 172.163 -5.55112e-17
391 2 8.86095 195.532 -5.55112e-17
392 1 157.335 210.054 -5.55112e-17
393 1 52.4056 122.329 -5.55112e-17
394 1 80.9734 123.561 -5.55112e-17
395 1 22.8493 196.914 -5.55112e-17
396 1 101.26 155.829 -5.55112e-17
397 1 168.373 25.0607 -5.55112e-17
398 1 3.73186 141.035 -5.55112e-17
399 1 162.173 218.971 -5.55112e-17
400 1 60.2333 133.227 -5.55112e-17
401 1 45.3763 213.402 -5.55112e-17
402 2 33.2126 132.359 -5.55112e-17
403 1 2.3855 166.297 -5.55112e-17
404 1 208.145 90.3164 -5.55112e-17
405 1 152.53 127.868 -5.55112e-17
406 1 204.201 11.5061 -5.55112e-17
407 2 203.889 53.506 -5.55112e-17
408 1 38.2899 211.591 -5.55112e-17
409 1 22.1051 107.646 -5.55112e-17
410 1 80.1879 30.1845 -5.55112e-17
411 1 205.682 129.795 -5.55112e-17
412 1 81.5514 66.7873 -5.55112e-17
413 1 86.1138 142.699 -5.55112e-17
414 1 26.8205 36.8446 -5.55112e-17
415 1 131.649 120.077 -5.55112e-17
416 1 2.66158 76.4249 -5.55112e-17
417 1 177.529 66.7298 -5.55112e-17
418 2 215.859 18.8475 -5.55112e-17
419 1 147.908 186.887 -5.55112e-17
420 2 156.275 97.4062 -5.55112e-17
421 1 148.701 131.767 -5.55112e-17
422 1 147.815 4.07132 -5.55112e-17
423 2 187.225 146.253 -5.55112e-17
424 1 172.911 155.507 -5.55112e-17
425 1 104.677 212.338 -5.55112e-17
426 1 164.657 148.925 -5.55112e-17
427 1 184.939 21.9946 -5.55112e-17
428 1 76.6408 86.9043 -5.55112e-17
429 1 195.523 157.74 -5.55112e-17
430 1 196.673 216.369 -5.55112e-17
431 1 186.351 160.655 -5.55112e-17
432 1 89.7003 30.7888 -5.55112e-17
433 1 26.0566 192.044 -5.55112e-17
434 1 74.5639 66.5366 -5.55112e-17
435 1 129.276 114.684 -5.55112e-17
436 1 91.8707 37.2396 -5.55112e-17
437 1 170.452 131.785 -5.55112e-17
438 2 88.8842 56.5201 -5.55112e-17
439 1 70.4461 45.4045 -5.55112e-17
440 1 192.224 13.6218 -5.55112e-17
441 1 143.134 105.806 -5.55112e-17
442 1 139.816 202.051 -5.55112e-17
443 1 168.325 47.7385 -5.55112e-17
444 1 126.613 21.4274 -5.55112e-17
445 1 171.883 28.7977 -5.55112e-17
446 1 156.834 147.042 -5.55112e-17
447 1 42.5373 50.745 -5.55112e-17
448 1 54.3119 41.5641 -5.55112e-17
449 1 105.709 198.776 -5.55112e-17
450 1 26.5381 217.01 -5.55112e-17
451 1 190.291 169.518 -5.55112e-17
452 1 119.874 189.75 -5.55112e-17
453 1 169.692 124.745 -5.55112e-17
454 1 217.865 187.081 -5.55112e-17
455 1 211.142 6.998 -5.55112e-17
456 1 211.518 208.765 -5.55112e-17
457 1 198.929 82.3768 -5.55112e-17
458 1 144.191 203.704 -5.55112e-17
459 1 92.1385 5.25934 -5.55112e-17
460 1 122.606 97.136 -5.55112e-17
461 1 87.5277 156.523 -5.55112e-17
462 1 24.7363 57.3275 -5.55112e-17
463 1 189.833 12.8328 -5.55112e-17
464 1 130.269 26.3174 -5.55112e-17
465 1 136.11 141.35 -5.55112e-17
466 1 53.0261 93.6975 -5.55112e-17
467 1 55.7404 213.034 -5.55112e-17
468 1 159.93 140.421 -5.55112e-17
469 1 99.4846 131.89 -5.55112e-17
470 1 112.584 46.4245 -5.55112e-17
471 1 191.036 162.302 -5.55112e-17
472 1 56.2788 39.8481 -5.55112e-17
473 1 105.268 112.137 -5.55112e-17
474 1 120.558 110.272 -5.55112e-17
475 1 35.9586 148.194 -5.55112e-17
476 2 47.2848 9.161 -5.55112e-17
477 1 206.708 28.4315 -5.55112e-17
478 1 216.353 168.296 -5.55112e-17
479 1 32.857 184.936 -5.55112e-17
480 1 63.4545 36.2306 -5.55112e-17
481 1 27.9081 147.362 -5.55112e-17
482 1 147.859 11.1752 -5.55112e-17
483 1 131.528 142.009 -5.55112e-17
484 2 75.2407 32.5734 -5.55112e-17
485 1 59.4068 207.034 -5.55112e-17
486 1 64.3488 89.7935 -5.55112e-17
487 1 85.5344 196.656 -5.55112e-17
488 1 45.9218 64.5081 -5.55112e-17
489 1 162.954 65.3027 -5.55112e-17
490 1 62.2943 0.714256 -5.55112e-17
491 1 135.329 102.011 -5.55112e-17
492 1 37.7478 166.736 -5.55112e-17
493 1 168.607 197.503 -5.55112e-17
494 1 123.394 195.579 -5.55112e-17
495 1 104.589 207.25 -5.55112e-17
496 2 117.607 210.359 -5.55112e-17
497 1 165.495 15.5743 -5.55112e-17
498 1 69.5974 162.526 -5.55112e-17
499 2 98.5677 19.109 -5.55112e-17
500 1 163.12 177.358 -5.55112e-17
501 2 136.05 205.574 -5.55112e-17
502 2 121.962 170.752 -5.55112e-17
503 1 176.942 207.914 -5.55112e-17
504 1 130.153 125.082 -5.55112e-17
505 1 21.9156 53.739 -5.55112e-17
506 1 111.513 149.756 -5.55112e-17
507 1 79.3423 121.756 -5.55112e-17
508 1 21.1458 209.739 -5.55112e-17
509 2 31.5241 97.8183 -5.55112e-17
510 2 116.685 183.11 -5.55112e-17
511 1 116.986 107.167 -5.55112e-17
512 2 46.7384 107.124 -5.55112e-17
513 1 94.7933 188.574 -5.55112e-17
514 1 55.3379 68.4687 -5.55112e-17
515 1 65.8297 37.5841 -5.55112e-17
516 1 217.86 182.725 -5.55112e-17
517 1 121.031 149.676 -5.55112e-17
518 2 111.212 116.625 -5.55112e-17
519 1 182.119 75.8868 -5.55112e-17
520 2 36.062 101.691 -5.55112e-17
521 1 173.257 118.986 -5.55112e-17
522 1 72.6386 193.977 -5.55112e-17
523 1 209.278 145.515 -5.55112e-17
524 1 45.3353 11.484 -5.55112e-17
525 1 72.1723 175.666 -5.55112e-17
526 1 153.985 23.8205 -5.55112e-17
527 1 12.2231 60.2978 -5.55112e-17
528 1 113.271 48.705 -5.55112e-17
529 1 69.688 144.676 -5.55112e-17
530 1 139.011 64.3397 -5.55112e-17
531 1 130.305 161.472 -5.55112e-17
532 1 151.614 211.395 -5.55112e-17
533 1 64.2677 116.563 -5.55112e-17
534 1 119.996 159.407 -5.55112e-17
535 1 151.927 187.133 -5.55112e-17
536 1 147.863 74.2708 -5.55112e-17
537 1 11.6202 194.806 -5.55112e-17
538 1 130.975 104.194 -5.55112e-17
539 1 51.8174 49.0638 -5.55112e-17
540 1 158.6 17.4646 -5.55112e-17
541 1 153.513 173.657 -5.55112e-17
542 1 72.3576 49.519 -5.55112e-17
543 1 85.3209 208.546 -5.55112e-17
544 1 172.991 6.72914 -5.55112e-17
545 1 1.73198 192.683 -5.55112e-17
546 1 203.401 183.31 -5.55112e-17
547 1 193.203 147.552 -5.55112e-17
548 1 36.348 168.942 -5.55112e-17
549 1 198.419 68.9531 -5.55112e-17
550 2 184.555 126.548 -5.55112e-17
551 2 138.096 78.8261 -5.55112e-17
552 2 119.753 44.0902 -5.55112e-17
553 1 161.008 51.9017 -5.55112e-17
554 1 174.72 106.256 -5.55112e-17
555 2 186.509 82.1511 -5.55112e-17
556 1 125.751 2.09779 -5.55112e-17
557 1 98.6531 68.8563 -5.55112e-17
558 1 200.018 16.6823 -5.55112e-17
559 1 203.75 200.068 -5.55112e-17
560 1 162.793 29.1338 -5.55112e-17
561 1 214.351 180.338 -5.55112e-17
562 1 175.669 209.995 -5.55112e-17
563 2 181.061 176.729 -5.55112e-17
564 1 35.7027 176.293 -5.55112e-17
565 1 157.207 183.931 -5.55112e-17
566 1 58.062 103.645 -5.55112e-17
567 1 142.795 69.9323 -5.55112e-17
568 1 210.346 162.679 -5.55112e-17
569 1 46.6325 171.382 -5.55112e-17
570 1 45.5511 161.92 -5.55112e-17
571 1 210.984 138.202 -5.55112e-17
572 1 122.053 67.2531 -5.55112e-17
573 1 139.279 186.492 -5.55112e-17
574 1 136.589 152.716 -5.55112e-17
575 1 209.634 103.578 -5.55112e-17
576 1 169.295 117.605 -5.55112e-17
577 1 175.209 0.317335 -5.55112e-17
578 1 112.655 199.17 -5.55112e-17
579 1 199.264 64.3229 -5.55112e-17
580 1 38.5021 47.5785 -5.55112e-17
581 1 94.2839 186.067 -5.55112e-17
582 1 5.71597 30.6041 -5.55112e-17
583 1 33.2413 51.2692 -5.55112e-17
584 2 13.3631 207.079 -5.55112e-17
585 1 207.939 132.496 -5.55112e-17
586 1 150.101 97.8614 -5.55112e-17
587 1 184.274 7.13234 -5.55112e-17
588 1 47.8917 139.62 -5.55112e-17
589 1 139.565 3.78306 -5.55112e-17
590 1 105.339 0.611247 -5.55112e-17
591 1 13.8143 203.205 -5.55112e-17
592 1 18.9638 89.7976 -5.55112e-17
593 1 6.62343 160.19 -5.55112e-17
594 1 66.8253 183.369 -5.55112e-17
595 1 65.4828 112.239 -5.55112e-17
596 1 57.8098 25.0802 -5.55112e-17
597 2 217.21 60.8505 -5.55112e-17
598 1 20.1018 16.0384 -5.55112e-17
599 1 20.3663 215.664 -5.55112e-17
600 1 11.6092 218.544 -5.55112e-17
601 1 55.5687 139.674 -5.55112e-17
602 1 151.904 56.2128 -5.55112e-17
603 1 47.6655 178.037 -5.55112e-17
604 1 86.8663 185.444 -5.55112e-17
605 2 61.6822 130.74 -5.55112e-17
606 1 198.497 190.004 -5.55112e-17
607 2 155.127 177.972 -5.55112e-17
608 1 165.459 185.595 -5.55112e-17
609 1 185.021 141.412 -5.55112e-17
610 1 165.026 153.682 -5.55112e-17
611 1 54.328 148.672 -5.55112e-17
612 1 215.189 80.5078 -5.55112e-17
613 1 153.344 156.296 -5.55112e-17
614 2 205.591 178.712 -5.55112e-17
615 1 85.5728 169.073 -5.55112e-17
616 1 161.031 77.6502 -5.55112e-17
617 1 97.9337 206.18 -5.55112e-17
618 1 198.281 185.088 -5.55112e-17
619 1 101.47 146.772 -5.55112e-17
620 1 196.861 213.525 -5.55112e-17
621 1 97.9393 49.7409 -5.55112e-17
622 1 118.747 181.362 -5.55112e-17
623 1 189.258 154.443 -5.55112e-17
624 1 59.1019 40.095 -5.55112e-17
625 1 175.498 7.68853 -5.55112e-17
626 1 57.6912 1.8216 -5.55112e-17
627 1 75.3633 124.958 -5.55112e-17
628 1 61.7976 40.2006 -5.55112e-17
629 1 0.411666 99.0147 -5.55112e-17
630 2 119.598 68.5644 -5.55112e-17
631 1 216.068 122.386 -5.55112e-17
632 1 218.11 84.6543 -5.55112e-17
633 1 47.0751 185.404 -5.55112e-17
634 1 212.48 14.7309 -5.55112e-17
635 1 94.4834 159.185 -5.55112e-17
636 1 157.995 42.3257 -5.55112e-17
637 1 210.85 78.5735 -5.55112e-17
638 1 201.273 81.5651 -5.55112e-17
639 2 38.9551 63.0455 -5.55112e-17
640 1 137.999 139.73 -5.55112e-17
641 1 145.586 96.0018 -5.55112e-17
642 1 94.997 11.9147 -5.55112e-17
643 2 161.069 39.0348 -5.55112e-17
644 1 63.5628 46.8576 -5.55112e-17
645 1 81.7955 160.633 -5.55112e-17
646 2 6.45128 97.1753 -5.55112e-17
647 1 170.804 36.027 -5.55112e-17
648 1 198.898 30.7905 -5.55112e-17
649 2 100.01 137.072 -5.55112e-17
650 1 203.045 140.075 -5.55112e-17
651 1 10.2636 206.939 -5.55112e-17
652 1 189.605 165.612 -5.55112e-17
653 1 15.825 167.614 -5.55112e-17
654 1 190.916 211.133 -5.55112e-17
655 2 35.7755 173.613 -5.55112e-17
656 1 73.908 170.405 -5.55112e-17
657 2 126.996 192.295 -5.55112e-17
658 1 214.895 38.6098 -5.55112e-17
659 2 208.161 148.426 -5.55112e-17
660 1 25.0344 47.3873 -5.55112e-17
661 1 177.881 124.455 -5.55112e-17
662 1 33.2036 100.436 -5.55112e-17
663 1 96.548 21.4833 -5.55112e-17
664 1 103.296 52.3253 -5.55112e-17
665 1 150.883 62.7621 -5.55112e-17
666 2 132.971 25.4274 -5.55112e-17
667 1 172.341 54.4485 -5.55112e-17
668 2 134.752 110.39 -5.55112e-17
669 1 87.3424 20.6695 -5.55112e-17
670 1 181.966 192.163 -5.55112e-17
671 2 88.2861 138.08 -5.55112e-17
672 1 83.8867 7.30937 -5.55112e-17
673 1 37.0725 81.7239 -5.55112e-17
674 1 199.653 126.823 -5.55112e-17
675 1 148.803 19.3781 -5.55112e-17
676 1 148.658 88.5975 -5.55112e-17
677 1 182.005 160.361 -5.55112e-17
678 1 155.315 171.119 -5.55112e-17
679 2 186.032 211.787 -5.55112e-17
680 1 9.84363 87.1147 -5.55112e-17
681 2 209.883 10.6821 -5.55112e-17
682 1 66.4982 201.02 -5.55112e-17
683 1 73.6933 204.9 -5.55112e-17
684 1 117.579 197.39 -5.55112e-17
685 1 141.722 42.7894 -5.55112e-17
686 1 103.357 78.3495 -5.55112e-17
687 1 206.709 168.908 -5.55112e-17
688 1 193.371 123.839 -5.55112e-17
689 2 95.1896 48.8653 -5.55112e-17
690 1 70.7947 82.4087 -5.55112e-17
691 1 10.9404 92.8963 -5.55112e-17
692 1 80.7143 135.085 -5.55112e-17
693 1 123.516 18.0303 -5.55112e-17
694 1 24.0815 189.368 -5.55112e-17
695 1 20.2463 131.774 -5.55112e-17
696 1 100.786 108.299 -5.55112e-17
697 1 145.198 191.849 -5.55112e-17
698 1 114.202 85.0343 -5.55112e-17
699 1 197.95 115.022 -5.55112e-17
700 1 61.912 8.32227 -5.55112e-17
701 1 29.1587 114.686 -5.55112e-17
702 1 15.785 134.993 -5.55112e-17
703 2 26.0761 154.94 -5.55112e-17
704 1 154.489 210.778 -5.55112e-17
705 2 116.617 124.369 -5.55112e-17
706 1 41.4485 153.201 -5.55112e-17
707 1 155.686 38.079 -5.55112e-17
708 1 88.9961 123.133 -5.55112e-17
709 1 14.2888 161.799 -5.55112e-17
710 1 214.133 97.4776 -5.55112e-17
711 1 85.7578 154.755 -5.55112e-17
712 1 202.005 110.449 -5.55112e-17
713 1 113.004 189.382 -5.55112e-17
714 1 146.816 58.8803 -5.55112e-17
715 1 3.57425 5.73075 -5.55112e-17
716 1 87.441 147.147 -5.55112e-17
717 1 117.519 139.339 -5.55112e-17
718 1 165.245 113.374 -5.55112e-17
719 2 46.1007 38.4555 -5.55112e-17
720 1 102.679 42.5227 -5.55112e-17
721 1 147.57 209.095 -5.55112e-17
722 1 97.2168 83.7464 -5.55112e-17
723 2 191.106 121.586 -5.55112e-17
724 1 53.9169 214.715 -5.55112e-17
725 1 5.31755 76.1992 -5.55112e-17
726 1 124.221 80.3591 -5.55112e-17
727 1 44.7091 115.27 -5.55112e-17
728 2 169.765 85.2552 -5.55112e-17
729 1 153.12 200.936 -5.55112e-17
730 1 71.4521 205.925 -5.55112e-17
731 1 78.0279 31.3429 -5.55112e-17
732 1 84.6983 11.9857 -5.55112e-17
733 1 118.048 26.8854 -5.55112e-17
734 1 108.542 63.4145 -5.55112e-17
735 1 22.4092 46.6197 -5.55112e-17
736 2 174.314 66.7875 -5.55112e-17
737 1 115.16 66.2705 -5.55112e-17
738 1 218.69 178.178 -5.55112e-17
739 1 171.838 185.114 -5.55112e-17
740 1 39.295 134.777 -5.55112e-17
741 2 14.3005 53.0969 -5.55112e-17
742 1 74.0745 77.5993 -5.55112e-17
743 1 132.388 28.2256 -5.55112e-17
744 2 196.711 147.48 -5.55112e-17
745 1 100.854 8.78024 -5.55112e-17
746 1 62.5218 210.425 -5.55112e-17
747 2 18.1948 72.9192 -5.55112e-17
748 1 194.804 33.637 -5.55112e-17
749 1 14.6631 175.29 -5.55112e-17
750 1 11.2879 145.602 -5.55112e-17
751 1 129.315 68.8493 -5.55112e-17
752 1 177.814 205.238 -5.55112e-17
753 1 115.175 178.443 -5.55112e-17
754 1 43.6077 13.3917 -5.55112e-17
755 1 108.826 79.7689 -5.55112e-17
756 2 164.323 1.54291 -5.55112e-17
757 1 44.5467 185.218 -5.55112e-17
758 1 35.2253 157.022 -5.55112e-17
759 1 138.588 154.28 -5.55112e-17
760 1 175.257 142.046 -5.55112e-17
761 1 49.1086 37.4025 -5.55112e-17
762 1 154.649 19.5193 -5.55112e-17
763 1 23.1228 149.631 -5.55112e-17
764 2 110.976 131.534 -5.55112e-17
765 1 200.176 61.8832 -5.55112e-17
766 1 55.7908 75.6438 -5.55112e-17
767 1 196.456 183.3 -5.55112e-17
768 1 6.66372 21.1282 -5.55112e-17
769 1 39.1957 127.534 -5.55112e-17
770 2 55.6282 88.5289 -5.55112e-17
771 1 161.497 182.029 -5.55112e-17
772 1 76.403 131.677 -5.55112e-17
773 1 92.4126 157.425 -5.55112e-17
774 1 140.451 145.026 -5.55112e-17
775 1 165.985 21.2082 -5.55112e-17
776 1 94.4202 200.546 -5.55112e-17
777 1 218.401 17.807 -5.55112e-17
778 1 35.1952 205.642 -5.55112e-17
779 1 184.034 161.441 -5.55112e-17
780 1 145.837 149.143 -5.55112e-17
781 1 15.0132 147.394 -5.55112e-17
782 1 199.674 77.4056 -5.55112e-17
783 1 153.982 198.592 -5.55112e-17
784 2 175.786 103.712 -5.55112e-17
785 1 123.578 150.374 -5.55112e-17
786 1 105.794 163.31 -5.55112e-17
787 1 8.26291 213.57 -5.55112e-17
788 1 135.78 73.5668 -5.55112e-17
789 2 189.92 90.1466 -5.55112e-17
790 1 88.7596 71.1974 -5.55112e-17
791 2 125.547 138.208 -5.55112e-17
792 2 0.223803 81.5437 -5.55112e-17
793 2 96.492 70.9616 -5.55112e-17
794 1 15.0745 27.1997 -5.55112e-17
795 1 177.471 42.54 -5.55112e-17
796 1 208.045 42.9977 -5.55112e-17
797 1 148.029 112.299 -5.55112e-17
798 2 54.4113 52.8837 -5.55112e-17
799 2 49.3024 102.913 -5.55112e-17
800 2 134.136 7.09544 -5.55112e-17
801 1 197.73 84.7815 -5.55112e-17
802 1 47.4411 22.4586 -5.55112e-17
803 1 129.833 144.232 -5.55112e-17
804 2 105.944 109.516 -5.55112e-17
805 1 186.392 95.0316 -5.55112e-17
806 1 83.3311 170.368 -5.55112e-17
807 2 152.609 4.15769 -5.55112e-17
808 1 206.929 94.6103 -5.55112e-17
809 2 195.399 20.0987 -5.55112e-17
810 1 125.651 16.5938 -5.55112e-17
811 1 6.92602 74.0508 -5.55112e-17
812 1 193.214 15.9742 -5.55112e-17
813 2 108.33 164.792 -5.55112e-17
814 1 96.2734 68.1672 -5.55112e-17
815 1 68.8658 21.6221 -5.55112e-17
816 1 1.29193 214.489 -5.55112e-17
817 1 182.787 153.511 -5.55112e-17
818 1 122.376 189.214 -5.55112e-17
819 1 110.68 136.66 -5.55112e-17
820 1 160.77 207.385 -5.55112e-17
821 1 45.6521 140.961 -5.55112e-17
822 2 28.2209 211.492 -5.55112e-17
823 2 203.702 115.883 -5.55112e-17
824 1 114.784 92.8434 -5.55112e-17
825 1 15.393 49.9193 -5.55112e-17
826 1 46.0004 187.879 -5.55112e-17
827 1 4.55315 22.5593 -5.55112e-17
828 1 38.6782 180.466 -5.55112e-17
829 1 10.0273 50.435 -5.55112e-17
830 1 29.4013 64.1266 -5.55112e-17
831 1 0.197855 189.117 -5.55112e-17
832 1 208.497 83.246 -5.55112e-17
833 1 26.2292 63.2381 -5.55112e-17
834 1 107.913 187.833 -5.55112e-17
835 1 55.2166 199.212 -5.55112e-17
836 1 208.553 99.4631 -5.55112e-17
837 1 206.823 105.382 -5.55112e-17
838 1 214.259 21.6852 -5.55112e-17
839 2 147.652 146.572 -5.55112e-17
840 1 71.6427 77.6259 -5.55112e-17
841 2 53.658 44.0822 -5.55112e-17
842 1 17.7165 44.1615 -5.55112e-17
843 2 139.948 126.672 -5.55112e-17
844 1 31.1138 6.61048 -5.55112e-17
845 1 48.5441 180.653 -5.55112e-17
846 1 144.278 14.9076 -5.55112e-17
847 1 41.523 180.643 -5.55112e-17
848 1 147.24 56.4822 -5.55112e-17
849 1 132.64 124.237 -5.55112e-17
850 1 67.2595 3.10176 -5.55112e-17
851 1 76.6194 55.6381 -5.55112e-17
852 1 28.6421 7.18524 -5.55112e-17
853 1 113.336 107.088 -5.55112e-17
854 1 3.54653 90.0348 -5.55112e-17
855 1 135.962 71.0079 -5.55112e-17
856 1 98.4905 91.5184 -5.55112e-17