ITEM: TIMESTEP
0
ITEM: NUMBER OF ATOMS
7200
ITEM: BOX BOUNDS xy xz yz pp pp pp
0.0000000000000000e+00 2.1900000000000000e+02 0.0000000000000000e+00
0.0000000000000000e+00 2.1900000000000000e+02 0.0000000000000000e+00
-3.6499999999999999e-01 3.6499999999999999e-01 0.0000000000000000e+00
ITEM: ATOMS id type x y z
1 1 111.728 67.9672 -5.55112e-17
2 1 36.6609 25.9096 -5.55112e-17
3 1 16.4522 143.659 -5.55112e-17
4 1 62.0936 206.149 -5.55112e-17
5 1 165.655 141.405 -5.55112e-17
6 1 162.267 40.3173 -5.55112e-17
7 1 201.575 149.191 -5.55112e-17
8 2 182.109 148.531 -5.55112e-17
9 1 55.3631 88.877 -5.55112e-17
10 2 125.413 112.37 -5.55112e-17
11 1 218.738 25.5941 -5.55112e-17
12 1 41.5591 61.0154 -5.55112e-17
13 2 176.888 101.74 -5.55112e-17
14 1 143.497 26.659 -5.55112e-17
15 1 205.651 108.228 -5.55112e-17
16 2 4.83645 174.887 -5.55112e-17
17 1 53.5103 185.52 -5.55112e-17
18 2 76.8357 95.139 -5.55112e-17
19 1 87.1919 75.9298 -5.55112e-17
20 1 63.7676 120.967 -5.55112e-17
21 1 170.914 134.482 -5.55112e-17
22 2 3.19302 64.2116 -5.55112e-17
23 2 187.902 216.65 -5.55112e-17
24 1 146.371 17.8584 -5.55112e-17
25 1 214.544 198.253 -5.55112e-17
26 2 103.446 112.38 -5.55112e-17
27 1 128.291 141.042 -5.55112e-17
28 2 195.59 105.748 -5.55112e-17
29 1 62.9079 211.544 -5.55112e-17
30 1 73.9613 197.992 -5.55112e-17
31 1 72.9024 58.6239 -5.55112e-17
32 1 121.39 136.488 -5.55112e-17
33 1 41.1891 35.3639 -5.55112e-17
34 1 194.392 13.0466 -5.55112e-17
35 1 22.5034 169.86 -5.55112e-17
36 1 8.23117 158.46 -5.55112e-17
37 2 205.656 171.078 -5.55112e-17
38 1 44.507 135.388 -5.55112e-17
39 1 76.1501 188.574 -5.55112e-17
40 1 155.747 54.3294 -5.55112e-17
41 1 37.8193 80.6531 -5.55112e-17
42 1 138.164 194.043 -5.55112e-17
43 1 160.095 156.831 -5.55112e-17
44 1 199.22 176.202 -5.55112e-17
45 1 10.3493 194.417 -5.55112e-17
46 1 94.9105 156.286 -5.55112e-17
47 1 136.735 128.649 -5.55112e-17
48 2 93.291 80.2667 -5.55112e-17
49 1 143.728 57.6141 -5.55112e-17
50 1 22.2559 86.0361 -5.55112e-17
51 1 18.7603 209.955 -5.55112e-17
52 1 14.3969 116.615 -5.55112e-17
53 1 30.0125 168.659 -5.55112e-17
54 1 74.6774 185.408 -5.55112e-17
55 1 109.024 120.66 -5.55112e-17
56 1 136.091 153.809 -5.55112e-17
57 2 210.56 110.581 -5.55112e-17
58 1 76.3996 100.298 -5.55112e-17
59 1 162.639 20.9264 -5.55112e-17
60 2 0.652774 192.555 -5.55112e-17
61 2 69.9636 22.5863 -5.55112e-17
62 1 108.892 152.72 -5.55112e-17
63 1 168.616 25.8778 -5.55112e-17
64 1 112.702 49.8577 -5.55112e-17
65 1 92.5413 143.983 -5.55112e-17
66 1 192.161 214.663 -5.55112e-17
67 1 115.284 214.357 -5.55112e-17
68 1 206.491 119.756 -5.55112e-17
69 1 65.0264 147.582 -5.55112e-17
70 1 155.716 98.3635 -5.55112e-17
71 1 84.1827 149.523 -5.55112e-17
72 1 209.994 195.495 -5.55112e-17
73 1 128.699 103.585 -5.55112e-17
74 1 214.259 141.851 -5.55112e-17
75 2 76.942 76.0461 -5.55112e-17
76 1 208.838 23.7043 -5.55112e-17
77 1 3.4674 114.969 -5.55112e-17
78 1 105.756 196.508 -5.55112e-17
79 2 108.858 10.4685 -5.55112e-17
80 1 202.163 200.89 -5.55112e-17
81 1 152.093 71.6816 -5.55112e-17
82 1 158.605 59.0968 -5.55112e-17
83 2 147.092 10.8938 -5.55112e-17
84 1 15.2627 68.4216 -5.55112e-17
85 1 138.037 206.082 -5.55112e-17
86 1 127.614 175.272 -5.55112e-17
87 1 42.7668 3.64716 -5.55112e-17
88 1 151.91 101.109 -5.55112e-17
89 2 101.108 114.957 -5.55112e-17
90 2 78.8807 13.6708 -5.55112e-17
91 1 37.2234 184.221 -5.55112e-17
92 2 91.3548 47.4459 -5.55112e-17
93 1 189.552 85.2032 -5.55112e-17
94 2 182.239 50.6591 -5.55112e-17
95 1 204.093 133.825 -5.55112e-17
96 1 66.928 70.7793 -5.55112e-17
97 1 62.8618 182.433 -5.55112e-17
98 1 15.2864 75.5167 -5.55112e-17
99 1 62.2227 8.15511 -5.55112e-17
100 1 63.4187 202.19 -5.55112e-17
101 1 70.9164 188.635 -5.55112e-17
102 1 53.1626 172.896 -5.55112e-17
103 1 145.112 80.9428 -5.55112e-17
104 1 211.381 27.9562 -5.55112e-17
105 1 153.412 33.2894 -5.55112e-17
106 1 44.0418 147.767 -5.55112e-17
107 2 99.8316 111.522 -5.55112e-17
108 1 134.724 14.3125 -5.55112e-17
109 1 14.0118 10.6868 -5.55112e-17
110 1 49.6977 133.505 -5.55112e-17
111 1 21.4369 23.6901 -5.55112e-17
112 1 177.764 112.833 -5.55112e-17
113 1 103.696 39.2336 -5.55112e-17
114 1 79.5062 141.102 -5.55112e-17
115 1 5.70559 115.03 -5.55112e-17
116 2 141.466 145.254 -5.55112e-17
117 1 38.5262 181.966 -5.55112e-17
118 1 128.329 126.479 -5.55112e-17
119 2 139.561 199.401 -5.55112e-17
120 1 168.409 191.152 -5.55112e-17
121 1 79.7811 76.9168 -5.55112e-17
122 1 49.411 191.529 -5.55112e-17
123 1 202.411 87.4487 -5.55112e-17
124 1 43.4013 171.983 -5.55112e-17
125 1 196.835 145.542 -5.55112e-17
126 1 164.987 41.0652 -5.55112e-17
127 1 3.96646 132.845 -5.55112e-17
128 1 154.547 100.786 -5.55112e-17
129 1 143.786 202.007 -5.55112e-17
130 1 20.8585 183.16 -5.55112e-17
131 1 111.435 47.8083 -5.55112e-17
132 2 121.88 211.172 -5.55112e-17
133 1 13.7289 59.6138 -5.55112e-17
134 1 120.555 45.5652 -5.55112e-17
135 1 88.4476 106.648 -5.55112e-17
136 1 215.701 148.74 -5.55112e-17
137 1 185.512 88.749 -5.55112e-17
138 1 65.4808 125.741 -5.55112e-17
139 1 105.458 148.801 -5.55112e-17
140 2 4.20967 117.837 -5.55112e-17
141 1 107.022 44.8453 -5.55112e-17
142 2 79.7244 181.293 -5.55112e-17
143 1 211.385 150.477 -5.55112e-17
144 2 61.284 187.003 -5.55112e-17
145 1 33.3369 94.5706 -5.55112e-17
146 1 15.6295 97.8405 -5.55112e-17
147 1 144.096 189.686 -5.55112e-17
148 1 177.474 122.673 -5.55112e-17
149 1 179.765 128.086 -5.55112e-17
150 1 57.6758 200.007 -5.55112e-17
151 1 68.8057 180.092 -5.55112e-17
152 1 113.422 75.5644 -5.55112e-17
153 2 123.051 217.737 -5.55112e-17
154 1 15.8492 95.3925 -5.55112e-17
155 1 126.577 128.635 -5.55112e-17
156 2 31.4459 142.931 -5.55112e-17
157 1 140.035 73.3352 -5.55112e-17
158 1 135.827 57.3264 -5.55112e-17
159 1 171.9 172.496 -5.55112e-17
160 1 164.687 16.4794 -5.55112e-17
161 1 180.813 202.476 -5.55112e-17
162 1 125.986 154.554 -5.55112e-17
163 1 12.2926 125.917 -5.55112e-17
164 1 169.649 132.129 -5.55112e-17
165 1 76.0682 83.24 -5.55112e-17
166 2 7.53761 81.2607 -5.55112e-17
167 1 193.59 180.789 -5.55112e-17
168 1 94.4639 142.401 -5.55112e-17
169 1 136.609 29.1398 -5.55112e-17
170 1 184.421 27.3953 -5.55112e-17
171 1 66.9702 132.694 -5.55112e-17
172 1 138.507 196.592 -5.55112e-17
173 1 74.4015 155.344 -5.55112e-17
174 1 32.5749 210.846 -5.55112e-17
175 2 136.636 69.5569 -5.55112e-17
176 1 110.472 175.694 -5.55112e-17
177 2 0.577086 31.8852 -5.55112e-17
178 1 190.691 54.0357 -5.55112e-17
179 1 192.74 96.1603 -5.55112e-17
180 1 82.754 111.833 -5.55112e-17
181 1 42.982 213.57 -5.55112e-17
182 2 15.9038 175.034 -5.55112e-17
183 1 22.0049 163.785 -5.55112e-17
184 1 134.556 176.106 -5.55112e-17
185 2 152.626 62.8184 -5.55112e-17
186 2 85.5779 182.95 -5.55112e-17
187 1 176.318 125.151 -5.55112e-17
188 1 75.4976 110.794 -5.55112e-17
189 1 15.7275 36.7636 -5.55112e-17
190 2 131.073 181.408 -5.55112e-17
191 1 195.779 163.462 -5.55112e-17
192 2 180.911 71.3376 -5.55112e-17
193 2 199.021 140.54 -5.55112e-17
194 1 47.7146 95.0806 -5.55112e-17
195 1 191.638 153.341 -5.55112e-17
196 1 88.4149 86.952 -5.55112e-17
197 1 87.4454 23.0856 -5.55112e-17
198 2 44.9449 31.9096 -5.55112e-17
199 1 32.9999 121.172 -5.55112e-17
200 1 162.591 34.5004 -5.55112e-17
201 2 116.303 71.7578 -5.55112e-17
202 1 143.893 45.9473 -5.55112e-17
203 1 24.9727 51.8317 -5.55112e-17
204 1 34.8962 177.988 -5.55112e-17
205 2 176.577 200.367 -5.55112e-17
206 1 3.58051 2.76079 -5.55112e-17
207 1 50.2998 155.878 -5.55112e-17
208 1 44.8565 81.3642 -5.55112e-17
209 1 151.833 206.6 -5.55112e-17
210 1 170.604 96.0603 -5.55112e-17
211 2 172.857 16.4359 -5.55112e-17
212 1 123.84 124.45 -5.55112e-17
213 1 197.71 184.967 -5.55112e-17
214 1 196.93 63.4258 -5.55112e-17
215 1 108.909 155.253 -5.55112e-17
216 1 100.679 35.0947 -5.55112e-17
217 1 158.928 161.04 -5.55112e-17
218 2 173.062 94.6945 -5.55112e-17
219 1 194.993 196.933 -5.55112e-17
220 2 121.214 35.7209 -5.55112e-17
221 1 152.027 17.0652 -5.55112e-17
222 1 130.864 3.2871 -5.55112e-17
223 1 46.462 178.504 -5.55112e-17
224 2 41.3145 70.1381 -5.55112e-17
225 1 85.3456 53.0272 -5.55112e-17
226 1 83.0587 52.3055 -5.55112e-17
227 2 47.0603 118.063 -5.55112e-17
228 1 71.447 196.605 -5.55112e-17
229 1 132.431 127.872 -5.55112e-17
230 1 69.149 70.8143 -5.55112e-17
231 1 34.2885 116.932 -5.55112e-17
232 1 94.1063 114.467 -5.55112e-17
233 1 72.4987 128.81 -5.55112e-17
234 1 9.93282 88.4771 -5.55112e-17
235 1 202.423 171.3 -5.55112e-17
236 1 116.061 55.8175 -5.55112e-17
237 1 100.006 140.416 -5.55112e-17
238 1 98.0919 88.3586 -5.55112e-17
239 2 23.606 188.942 -5.55112e-17
240 1 33.1544 123.906 -5.55112e-17
241 2 96.6989 153.677 -5.55112e-17
242 2 71.273 211.312 -5.55112e-17
243 2 140.341 82.771 -5.55112e-17
244 1 65.1615 43.0189 -5.55112e-17
245 1 132.248 84.1694 -5.55112e-17
246 1 149.037 111.021 -5.55112e-17
247 1 162.328 100.542 -5.55112e-17
248 1 10.6965 188.902 -5.55112e-17
249 1 41.5451 160.409 -5.55112e-17
250 2 1.54179 50.1722 -5.55112e-17
251 1 55.5216 68.2871 -5.55112e-17
252 1 138.888 16.343 -5.55112e-17
253 1 170.502 2.00825 -5.55112e-17
254 2 2.61942 24.9761 -5.55112e-17
255 1 143.092 126.71 -5.55112e-17
256 1 67.4156 24.5562 -5.55112e-17
257 1 25.6634 36.3927 -5.55112e-17
258 2 109.914 195.791 -5.55112e-17
259 1 192.995 104.705 -5.55112e-17
260 1 145.458 68.5862 -5.55112e-17
261 1 125.122 115.136 -5.55112e-17
262 1 33.6328 20.2273 -5.55112e-17
263 1 4.32598 199.199 -5.55112e-17
264 1 33.2201 91.7619 -5.55112e-17
265 1 115.093 85.2364 -5.55112e-17
266 1 62.1539 116.299 -5.55112e-17
267 1 169.034 158.575 -5.55112e-17
268 1 64.7811 108.407 -5.55112e-17
269 1 100.58 43.2276 -5.55112e-17
270 1 174.746 118.553 -5.55112e-17
271 1 40.5776 145.077 -5.55112e-17
272 1 143.556 158.336 -5.55112e-17
273 1 123.559 184.33 -5.55112e-17
274 2 136.575 134.127 -5.55112e-17
275 1 33.4132 12.9075 -5.55112e-17
276 2 3.39706 149.19 -5.55112e-17
277 2 87.822 211.695 -5.55112e-17
278 1 203.644 206.374 -5.55112e-17
279 2 1.29071 203.112 -5.55112e-17
280 1 110.027 198.785 -5.55112e-17
281 1 92.2007 210.115 -5.55112e-17
282 1 42.3973 217.599 -5.55112e-17
283 1 199.121 89.9643 -5.55112e-17
284 1 32.9713 196.154 -5.55112e-17
285 1 61.9436 92.8426 -5.55112e-17
286 2 6.01572 17.536 -5.55112e-17
287 1 32.7176 156.983 -5.55112e-17
288 1 118.683 181.816 -5.55112e-17
289 1 160.717 63.9425 -5.55112e-17
290 1 59.1349 146.672 -5.55112e-17
291 1 208.206 129.352 -5.55112e-17
292 2 62.531 59.365 -5.55112e-17
293 2 46.8108 133.457 -5.55112e-17
294 1 207.198 39.2582 -5.55112e-17
295 1 54.1506 197.308 -5.55112e-17
296 1 19.2911 12.6375 -5.55112e-17
297 1 159.286 149.799 -5.55112e-17
298 1 41.9924 37.6614 -5.55112e-17
299 1 61.8687 128.322 -5.55112e-17
300 2 67.8066 152.199 -5.55112e-17
301 1 73.9895 8.01407 -5.55112e-17
302 1 100.999 48.8334 -5.55112e-17
303 2 151.422 140.642 -5.55112e-17
304 2 178.469 188.714 -5.55112e-17
305 1 126.44 147.462 -5.55112e-17
306 1 85.2613 111.408 -5.55112e-17
307 1 216.55 36.2007 -5.55112e-17
308 1 28.1703 174.47 -5.55112e-17
309 2 64.5695 137.85 -5.55112e-17
310 1 82.6991 176.616 -5.55112e-17
311 1 62.4252 69.4642 -5.55112e-17
312 1 129.529 55.4017 -5.55112e-17
313 2 35.9157 124.746 -5.55112e-17
314 1 129.64 205.251 -5.55112e-17
315 1 157.371 2.59466 -5.55112e-17
316 1 134.467 4.78334 -5.55112e-17
317 1 162.329 15.9386 -5.55112e-17
318 1 192.297 112.133 -5.55112e-17
319 1 1.66437 161.866 -5.55112e-17
320 1 128.243 69.5814 -5.55112e-17
321 1 68.1885 28.3947 -5.55112e-17
322 1 129.795 5.5783 -5.55112e-17
323 1 162.906 90.8672 -5.55112e-17
324 1 32.9591 147.953 -5.55112e-17
325 1 3.17931 125.808 -5.55112e-17
326 1 52.7878 3.39188 -5.55112e-17
327 2 12.3831 160.908 -5.55112e-17
328 1 99.6747 135.474 -5.55112e-17
329 2 63.5195 21.4896 -5.55112e-17
330 1 217.738 179.382 -5.55112e-17
331 1 123.184 103.886 -5.55112e-17
332 2 193.937 137.736 -5.55112e-17
333 1 146.451 213.806 -5.55112e-17
334 1 62.5386 208.645 -5.55112e-17
335 1 148.958 75.113 -5.55112e-17
336 1 18.1162 131.849 -5.55112e-17
337 1 11.6116 10.6555 -5.55112e-17
338 1 218.492 100.141 -5.55112e-17
339 1 194.257 45.4066 -5.55112e-17
340 1 181.936 206.732 -5.55112e-17
341 1 1.04642 143.938 -5.55112e-17
342 1 41.1387 14.3418 -5.55112e-17
343 1 7.36937 70.6267 -5.55112e-17
344 1 111.946 33.3098 -5.55112e-17
345 1 34.3505 142.433 -5.55112e-17
346 1 84.8644 185.806 -5.55112e-17
347 1 205.824 77.1926 -5.55112e-17
348 1 15.6567 105.209 -5.55112e-17
349 1 111.811 123.385 -5.55112e-17
350 2 20.0104 49.2982 -5.55112e-17
351 1 9.53827 75.4586 -5.55112e-17
352 1 98.7933 24.6391 -5.55112e-17
353 1 3.57442 190.245 -5.55112e-17
354 1 174.892 78.2096 -5.55112e-17
355 1 147.456 92.5356 -5.55112e-17
356 1 157.631 217.195 -5.55112e-17
357 1 44.1818 99.7504 -5.55112e-17
358 1 145.094 55.807 -5.55112e-17
359 1 132.687 139.873 -5.55112e-17
360 1 50.7949 193.942 -5.55112e-17
361 1 6.16799 137.428 -5.55112e-17
362 1 44.3878 60.4905 -5.55112e-17
363 1 115.181 45.1853 -5.55112e-17
364 2 159.736 42.4259 -5.55112e-17
365 1 182.987 82.1786 -5.55112e-17
366 1 86.5572 88.723 -5.55112e-17
367 1 28.3828 105.62 -5.55112e-17
368 1 216.488 174.53 -5.55112e-17
369 2 55.0088 44.2675 -5.55112e-17
370 1 89.7217 209.297 -5.55112e-17
371 1 51.1751 114.617 -5.55112e-17
372 2 110.575 100.004 -5.55112e-17
373 2 71.1852 106.901 -5.55112e-17
374 1 179.302 27.3069 -5.55112e-17
375 1 175.592 96.8115 -5.55112e-17
376 1 10.5619 25.971 -5.55112e-17
377 1 86.525 214.133 -5.55112e-17
378 1 31.7581 187.296 -5.55112e-17
379 1 23.9744 144.056 -5.55112e-17
380 1 6.61703 74.973 -5.55112e-17
381 1 64.4601 5.09039 -5.55112e-17
382 1 42.9032 83.1831 -5.55112e-17
383 1 139.458 103.83 -5.55112e-17
384 1 33.1391 81.578 -5.55112e-17
385 1 14.626 155.624 -5.55112e-17
386 2 12.8597 3.42841 -5.55112e-17
387 1 149.584 81.9486 -5.55112e-17
388 1 81.6497 34.6286 -5.55112e-17
389 1 169.486 4.1734 -5.55112e-17
390 2 105.879 34.4792 -5.55112e-17
391 2 69.4937 216.515 -5.55112e-17
392 1 151.71 196.35 -5.55112e-17
393 1 182.443 137.395 -5.55112e-17
394 1 78.267 16.6443 -5.55112e-17
395 1 20.1792 113.698 -5.55112e-17
396 1 197.014 209.736 -5.55112e-17
397 1 199.603 25.1017 -5.55112e-17
398 1 212.489 206.345 -5.55112e-17
399 1 13.4704 144.365 -5.55112e-17
400 1 145.846 62.4592 -5.55112e-17
401 1 176.883 141.966 -5.55112e-17
402 2 94.5089 117.54 -5.55112e-17
403 1 167.572 50.9224 -5.55112e-17
404 1 195.708 24.1184 -5.55112e-17
405 1 44.2088 192.061 -5.55112e-17
406 1 124.701 203.832 -5.55112e-17
407 2 108.52 16.8287 -5.55112e-17
408 1 33.4662 51.6835 -5.55112e-17
409 1 79.0415 83.3099 -5.55112e-17
410 1 55.0662 99.4639 -5.55112e-17
411 1 177.629 53.0697 -5.55112e-17
412 1 149.274 5.84366 -5.55112e-17
413 1 181.345 17.8051 -5.55112e-17
414 1 147.913 160.465 -5.55112e-17
415 1 210.705 64.2835 -5.55112e-17
416 1 145.363 91.234 -5.55112e-17
417 1 190.765 9.67137 -5.55112e-17
418 2 57.3491 50.318 -5.55112e-17
419 1 79.1731 147.387 -5.55112e-17
420 2 55.0237 139.992 -5.55112e-17
421 1 150.252 50.9264 -5.55112e-17
422 1 93.1547 129.934 -5.55112e-17
423 2 133.346 1.9426 -5.55112e-17
424 1 40.3419 201.434 -5.55112e-17
425 1 179.231 142.128 -5.55112e-17
426 1 152.291 43.581 -5.55112e-17
427 1 159.88 69.6125 -5.55112e-17
428 1 36.6918 63.7828 -5.55112e-17
429 1 57.3465 5.65254 -5.55112e-17
430 1 98.6552 72.0033 -5.55112e-17
431 1 38.4563 202.728 -5.55112e-17
432 1 58.4614 99.9444 -5.55112e-17
433 1 5.62523 191.477 -5.55112e-17
434 1 104.454 4.31097 -5.55112e-17
435 1 45.4764 170.483 -5.55112e-17
436 1 16.7651 172.26 -5.55112e-17
437 1 182.8 194.864 -5.55112e-17
438 2 191.612 130.442 -5.55112e-17
439 1 15.7633 46.2536 -5.55112e-17
440 1 50.3302 4.84671 -5.55112e-17
441 1 121.172 151.911 -5.55112e-17
442 1 85.1583 71.9056 -5.55112e-17
443 1 46.5861 37.2135 -5.55112e-17
444 1 165.217 91.8281 -5.55112e-17
445 1 62.447 165.554 -5.55112e-17
446 1 126.66 138.794 -5.55112e-17
447 1 177.405 23.004 -5.55112e-17
448 1 22.4034 129.047 -5.55112e-17
449 1 183.983 176.57 -5.55112e-17
450 1 129.88 67.4802 -5.55112e-17
451 1 207.954 214.776 -5.55112e-17
452 1 50.5048 41.0234 -5.55112e-17
453 1 145.753 161.831 -5.55112e-17
454 1 136.674 215.651 -5.55112e-17
455 1 101.359 25.3487 -5.55112e-17
456 1 205.729 113.006 -5.55112e-17
457 1 173.146 192.007 -5.55112e-17
458 1 19.2594 17.238 -5.55112e-17
459 1 184.924 119.336 -5.55112e-17
460 1 183.306 171.743 -5.55112e-17
461 1 26.7896 150.173 -5.55112e-17
462 1 145.202 208.76 -5.55112e-17
463 1 21.0795 208.629 -5.55112e-17
464 1 163.711 174.53 -5.55112e-17
465 1 55.4708 149.249 -5.55112e-17
466 1 193.521 79.493 -5.55112e-17
467 1 144.941 59.9292 -5.55112e-17
468 1 133.521 7.37752 -5.55112e-17
469 1 51.1143 187.018 -5.55112e-17
470 1 194.542 113.294 -5.55112e-17
471 1 216.316 177.389 -5.55112e-17
472 1 191.66 31.5491 -5.55112e-17
473 1 24.127 62.1043 -5.55112e-17
474 1 202.43 168.75 -5.55112e-17
475 1 217.324 203.294 -5.55112e-17
476 2 14.0401 113.557 -5.55112e-17
477 1 213.886 75.8613 -5.55112e-17
478 1 61.3344 132.759 -5.55112e-17
479 1 123.561 177.114 -5.55112e-17
480 1 188.644 21.1794 -5.55112e-17
481 1 16.7789 124.549 -5.55112e-17
482 1 3.76237 84.4409 -5.55112e-17
483 1 67.4487 18.0813 -5.55112e-17
484 2 140.492 176.091 -5.55112e-17
485 1 137.825 19.0215 -5.55112e-17
486 1 143.124 4.05252 -5.55112e-17
487 1 3.52775 18.5363 -5.55112e-17
488 1 124.311 31.3555 -5.55112e-17
489 1 30.0174 44.8733 -5.55112e-17
490 1 125.45 180.887 -5.55112e-17
491 1 23.0411 64.2523 -5.55112e-17
492 1 31.1658 154.904 -5.55112e-17
493 1 70.7738 119.333 -5.55112e-17
494 1 78.7105 66.8461 -5.55112e-17
495 1 28.4057 176.968 -5.55112e-17
496 2 109.75 115.331 -5.55112e-17
497 1 103.7 72.3674 -5.55112e-17
498 1 33.2423 65.3569 -5.55112e-17
499 2 106.213 22.3721 -5.55112e-17
500 1 96.8445 101.139 -5.55112e-17
501 2 184.29 169.319 -5.55112e-17
502 2 187.981 183.067 -5.55112e-17
503 1 126.201 45.4381 -5.55112e-17
504 1 195.992 75.5171 -5.55112e-17
505 1 173.247 138.695 -5.55112e-17
506 1 216.609 51.1493 -5.55112e-17
507 1 111.767 12.5333 -5.55112e-17
508 1 61.5579 216.369 -5.55112e-17
509 2 204.109 187.305 -5.55112e-17
510 2 169.055 168.388 -5.55112e-17
511 1 65.6448 19.7478 -5.55112e-17
512 2 180.141 199.734 -5.55112e-17
513 1 46.0939 43.6802 -5.55112e-17
514 1 216.723 199.095 -5.55112e-17
515 1 19.6884 37.5686 -5.55112e-17
516 1 73.7291 88.2697 -5.55112e-17
517 1 99.6648 189.852 -5.55112e-17
518 2 199.561 146.99 -5.55112e-17
519 1 208.85 201.313 -5.55112e-17
520 2 77.8626 117.31 -5.55112e-17
521 1 42.5803 95.1281 -5.55112e-17
522 1 213.335 131.908 -5.55112e-17
523 1 43.6249 128.561 -5.55112e-17
524 1 107.659 87.9913 -5.55112e-17
525 1 119.433 10.8132 -5.55112e-17
526 1 198.397 152.315 -5.55112e-17
527 1 200.755 160.855 -5.55112e-17
528 1 161.551 37.798 -5.55112e-17
529 1 28.3997 14.6568 -5.55112e-17
530 1 38.7664 21.7936 -5.55112e-17
531 1 123.284 181.968 -5.55112e-17
532 1 11.5429 151.701 -5.55112e-17
533 1 65.4483 199.962 -5.55112e-17
534 1 131.521 45.6531 -5.55112e-17
535 1 102.31 19.4172 -5.55112e-17
536 1 76.5069 108.343 -5.55112e-17
537 1 36.7761 95.3303 -5.55112e-17
538 1 132.289 71.9494 -5.55112e-17
539 1 138.163 40.5374 -5.55112e-17
540 1 193.45 188.022 -5.55112e-17
541 1 37.6497 132.727 -5.55112e-17
542 1 155.691 28.4979 -5.55112e-17
543 1 84.4364 159.763 -5.55112e-17
544 1 150.84 154.327 -5.55112e-17
545 1 117.236 193.302 -5.55112e-17
546 1 0.671186 80.3139 -5.55112e-17
547 1 64.8562 24.4944 -5.55112e-17
548 1 56.525 136.737 -5.55112e-17
549 1 57.4929 97.967 -5.55112e-17
550 2 163.85 103.722 -5.55112e-17
551 2 70.742 56.8636 -5.55112e-17
552 2 46.5665 76.2806 -5.55112e-17
553 1 66.0856 96.7187 -5.55112e-17
554 1 133.917 161.305 -5.55112e-17
555 2 60.0984 38.613 -5.55112e-17
556 1 124.208 80.9377 -5.55112e-17
557 1 122.892 145.913 -5.55112e-17
558 1 214.159 98.366 -5.55112e-17
559 1 28.0472 82.1953 -5.55112e-17
560 1 198.101 107.424 -5.55112e-17
561 1 28.5482 203.691 -5.55112e-17
562 1 11.3228 105.995 -5.55112e-17
563 2 143.633 40.6926 -5.55112e-17
564 1 26.1944 39.436 -5.55112e-17
565 1 147.786 191.725 -5.55112e-17
566 1 148.088 97.041 -5.55112e-17
567 1 58.863 215.117 -5.55112e-17
568 1 216.929 194.087 -5.55112e-17
569 1 91.8958 202.502 -5.55112e-17
570 1 175.163 92.3349 -5.55112e-17
571 1 20.0411 46.2221 -5.55112e-17
572 1 20.7512 59.8186 -5.55112e-17
573 1 36.0648 68.5802 -5.55112e-17
574 1 18.6127 115.762 -5.55112e-17
575 1 33.7146 154.513 -5.55112e-17
576 1 77.7828 102.655 -5.55112e-17
577 1 151.178 103.655 -5.55112e-17
578 1 41.8539 110.196 -5.55112e-17
579 1 90.7352 211.948 -5.55112e-17
580 1 51.3612 25.4245 -5.55112e-17
581 1 71.7091 185.944 -5.55112e-17
582 1 94.9797 36.1425 -5.55112e-17
583 1 97.3519 136.242 -5.55112e-17
584 2 124.535 170.695 -5.55112e-17
585 1 70.6907 114.277 -5.55112e-17
586 1 9.16352 186.753 -5.55112e-17
587 1 140.79 148.172 -5.55112e-17
588 1 34.4102 218.756 -5.55112e-17
589 1 44.1343 36.4553 -5.55112e-17
590 1 71.1635 194.148 -5.55112e-17
591 1 65.3119 77.4577 -5.55112e-17
592 1 38.6701 34.7751 -5.55112e-17
593 1 121.29 116.22 -5.55112e-17
594 1 129.652 27.2163 -5.55112e-17
595 1 127.396 200.445 -5.55112e-17
596 1 143.46 61.8298 -5.55112e-17
597 2 92.8671 183.171 -5.55112e-17
598 1 204.67 59.8816 -5.55112e-17
599 1 83.0738 58.3871 -5.55112e-17
600 1 140.694 79.8959 -5.55112e-17
601 1 17.9022 82.0557 -5.55112e-17
602 1 207.016 53.5204 -5.55112e-17
603 1 138.586 125.04 -5.55112e-17
604 1 162.697 88.1189 -5.55112e-17
605 2 92.9508 72.8779 -5.55112e-17
606 1 157.604 68.7556 -5.55112e-17
607 2 152.354 81.8118 -5.55112e-17
608 1 194.805 203.016 -5.55112e-17
609 1 164.305 196.618 -5.55112e-17
610 1 96.2034 159.368 -5.55112e-17
611 1 14.7601 81.2095 -5.55112e-17
612 1 65.3308 59.1154 -5.55112e-17
613 1 215.385 0.731702 -5.55112e-17
614 2 36.4765 32.8757 -5.55112e-17
615 1 59.425 85.5811 -5.55112e-17
616 1 76.006 210.925 -5.55112e-17
617 1 180.435 48.6347 -5.55112e-17
618 1 190.729 83.2865 -5.55112e-17
619 1 118.072 59.8435 -5.55112e-17
620 1 30.6739 209.451 -5.55112e-17
621 1 158.829 50.2921 -5.55112e-17
622 1 162.519 194.368 -5.55112e-17
623 1 200.207 183.822 -5.55112e-17
624 1 68.5026 168.432 -5.55112e-17
625 1 101.63 129.479 -5.55112e-17
626 1 185.548 126.587 -5.55112e-17
627 1 129.21 190.324 -5.55112e-17
628 1 38.1028 43.811 -5.55112e-17
629 1 161.471 18.2088 -5.55112e-17
630 2 133.968 103.118 -5.55112e-17
631 1 111.905 73.576 -5.55112e-17
632 1 216.877 191.727 -5.55112e-17
633 1 87.0975 7.26865 -5.55112e-17
634 1 188.785 186.208 -5.55112e-17
635 1 86.4876 175.68 -5.55112e-17
636 1 96.8336 26.2014 -5.55112e-17
637 1 208.94 143.04 -5.55112e-17
638 1 110.864 151.18 -5.55112e-17
639 2 115.661 40.1188 -5.55112e-17
640 1 154.9 2.2801 -5.55112e-17
641 1 210.261 7.41615 -5.55112e-17
642 1 46.8618 208.621 -5.55112e-17
643 2 88.0353 64.0579 -5.55112e-17
644 1 45.9606 104.95 -5.55112e-17
645 1 160.93 79.1261 -5.55112e-17
646 2 86.3387 25.8586 -5.55112e-17
647 1 180.467 42.5869 -5.55112e-17
648 1 127.181 26.5063 -5.55112e-17
649 2 217.029 171.573 -5.55112e-17
650 1 109.777 185.392 -5.55112e-17
651 1 132.141 93.2747 -5.55112e-17
652 1 127.258 204.972 -5.55112e-17
653 1 181.096 55.3473 -5.55112e-17
654 1 166.908 214.98 -5.55112e-17
655 2 83.7573 164.689 -5.55112e-17
656 1 128.859 151.485 -5.55112e-17
657 2 154.022 23.8713 -5.55112e-17
658 1 192.186 202.68 -5.55112e-17
659 2 116.363 110.761 -5.55112e-17
660 1 101.874 155.193 -5.55112e-17
661 1 87.6482 40.4171 -5.55112e-17
662 1 211.699 178.612 -5.55112e-17
663 1 177.814 1.62511 -5.55112e-17
664 1 73.7777 195.046 -5.55112e-17
665 1 54.9382 170.864 -5.55112e-17
666 2 188.117 126.287 -5.55112e-17
667 1 161.228 58.8374 -5.55112e-17
668 2 76.1691 45.1487 -5.55112e-17
669 1 69.5776 123.912 -5.55112e-17
670 1 37.0441 162.08 -5.55112e-17
671 2 116.145 3.62043 -5.55112e-17
672 1 22.4156 151.008 -5.55112e-17
673 1 181.168 172.868 -5.55112e-17
674 1 110.368 167.822 -5.55112e-17
675 1 181.583 163.063 -5.55112e-17
676 1 191.642 52.0126 -5.55112e-17
677 1 79.9619 48.3508 -5.55112e-17
678 1 156.163 156.04 -5.55112e-17
679 2 28.234 47.4346 -5.55112e-17
680 1 190.263 19.5454 -5.55112e-17
681 2 29.9037 212.729 -5.55112e-17
682 1 68.5669 141.711 -5.55112e-17
683 1 213.288 136.666 -5.55112e-17
684 1 152.269 172.514 -5.55112e-17
685 1 137.744 187.242 -5.55112e-17
686 1 186.93 104.203 -5.55112e-17
687 1 25.8602 154.483 -5.55112e-17
688 1 92.9798 137.537 -5.55112e-17
689 2 163.556 139.89 -5.55112e-17
690 1 141.607 52.71 -5.55112e-17
691 1 184.113 95.8919 -5.55112e-17
692 1 12.0651 108.474 -5.55112e-17
693 1 215.767 167.759 -5.55112e-17
694 1 111.824 183.897 -5.55112e-17
695 1 69.7705 132.577 -5.55112e-17
696 1 39.6716 162.198 -5.55112e-17
697 1 49.6911 212.574 -5.55112e-17
698 1 148.306 87.5941 -5.55112e-17
699 1 17.667 148.093 -5.55112e-17
700 1 212.346 89.9578 -5.55112e-17
701 1 110.585 214.955 -5.55112e-17
702 1 10.3725 66.1674 -5.55112e-17
703 2 117.852 167.571 -5.55112e-17
704 1 168.538 217.259 -5.55112e-17
705 2 178.14 149.316 -5.55112e-17
706 1 42.8986 167.23 -5.55112e-17
707 1 159.791 206.879 -5.55112e-17
708 1 101.582 205.009 -5.55112e-17
709 1 206.874 34.4716 -5.55112e-17
710 1 120.376 168.816 -5.55112e-17
711 1 111.782 113.569 -5.55112e-17
712 1 33.41 76.2771 -5.55112e-17
713 1 28.3805 198.582 -5.55112e-17
714 1 203.237 209.114 -5.55112e-17
715 1 205.342 161.125 -5.55112e-17
716 1 18.1353 104.345 -5.55112e-17
717 1 108.837 202.805 -5.55112e-17
718 1 130.461 192.635 -5.55112e-17
719 2 27.4508 147.397 -5.55112e-17
720 1 22.751 101.347 -5.55112e-17
721 1 216.152 71.7642 -5.55112e-17
722 1 126.067 79.2811 -5.55112e-17
723 2 131.665 131.074 -5.55112e-17
724 1 207.38 11.6086 -5.55112e-17
725 1 91.5042 117.983 -5.55112e-17
726 1 94.3191 3.49311 -5.55112e-17
727 1 50.6252 63.2377 -5.55112e-17
728 2 18.7467 24.7829 -5.55112e-17
729 1 109.83 45.7383 -5.55112e-17
730 1 21.4101 29.03 -5.55112e-17
731 1 47.4273 165.05 -5.55112e-17
732 1 69.2758 198.512 -5.55112e-17
733 1 136.813 180.093 -5.55112e-17
734 1 38.9559 48.6232 -5.55112e-17
735 1 212.624 34.341 -5.55112e-17
736 2 218.441 135.144 -5.55112e-17
737 1 126.449 41.2576 -5.55112e-17
738 1 53.5177 160.777 -5.55112e-17
739 1 172.983 114.479 -5.55112e-17
740 1 160.194 192.451 -5.55112e-17
741 2 7.22769 109.683 -5.55112e-17
742 1 169.385 153.462 -5.55112e-17
743 1 38.7235 90.5463 -5.55112e-17
744 2 161.899 186.971 -5.55112e-17
745 1 91.5562 165.547 -5.55112e-17
746 1 7.04064 100.565 -5.55112e-17
747 2 90.3911 138.437 -5.55112e-17
748 1 52.6391 109.541 -5.55112e-17
749 1 98.1116 93.0419 -5.55112e-17
750 1 44.0796 51.2279 -5.55112e-17
751 1 60.0891 192.123 -5.55112e-17
752 1 202.458 28.9032 -5.55112e-17
753 1 100.903 93.8403 -5.55112e-17
754 1 200.338 167.488 -5.55112e-17
755 1 173.434 159.652 -5.55112e-17
756 2 1.02671 216.869 -5.55112e-17
757 1 145.825 148.092 -5.55112e-17
758 1 161.5 151.858 -5.55112e-17
759 1 207.84 51.1386 -5.55112e-17
760 1 49.3452 50.0091 -5.55112e-17
761 1 61.1712 201.067 -5.55112e-17
762 1 180.473 102.706 -5.55112e-17
763 1 13.3299 104.429 -5.55112e-17
764 2 45.7302 87.6855 -5.55112e-17
765 1 177.371 98.7717 -5.55112e-17
766 1 22.1669 41.7125 -5.55112e-17
767 1 200.425 3.42246 -5.55112e-17
768 1 16.5934 70.8755 -5.55112e-17
769 1 203.94 173.318 -5.55112e-17
770 2 40.145 63.9376 -5.55112e-17
771 1 7.85431 141.834 -5.55112e-17
772 1 176.674 15.9358 -5.55112e-17
773 1 152.637 200.916 -5.55112e-17
774 1 103.558 188.677 -5.55112e-17
775 1 89.0782 116.314 -5.55112e-17
776 1 133.322 183.676 -5.55112e-17
777 1 48.6451 47.5216 -5.55112e-17
778 1 17.3909 198.841 -5.55112e-17
779 1 167.237 144.138 -5.55112e-17
780 1 118.665 164.712 -5.55112e-17
781 1 89.2212 45.38 -5.55112e-17
782 1 177.006 170.052 -5.55112e-17
783 1 87.0266 143.09 -5.55112e-17
784 2 34.6051 73.5272 -5.55112e-17
785 1 109.163 157.597 -5.55112e-17
786 1 158.371 93.1919 -5.55112e-17
787 1 85.5015 155.042 -5.55112e-17
788 1 53.088 141.96 -5.55112e-17
789 2 14.3657 213.782 -5.55112e-17
790 1 154.672 16.3954 -5.55112e-17
791 2 131.125 90.4431 -5.55112e-17
792 2 44.4961 176.576 -5.55112e-17
793 2 16.3004 22.376 -5.55112e-17
794 1 13.4838 102.019 -5.55112e-17
795 1 212.705 127.06 -5.55112e-17
796 1 215.042 38.5812 -5.55112e-17
797 1 218.445 200.969 -5.55112e-17
798 2 214.999 201.357 -5.55112e-17
799 2 80.1975 128.515 -5.55112e-17
800 2 113.049 59.7269 -5.55112e-17
801 1 93.0824 53.4148 -5.55112e-17
802 1 147.905 51.4961 -5.55112e-17
803 1 158.891 85.1362 -5.55112e-17
804 2 201.399 61.2801 -5.55112e-17
805 1 195.747 2.79587 -5.55112e-17
806 1 178.578 46.8267 -5.55112e-17
807 2 176.818 173.207 -5.55112e-17
808 1 205.298 182.179 -5.55112e-17
809 2 113.955 91.6952 -5.55112e-17
810 1 10.2453 7.97734 -5.55112e-17
811 1 157.198 66.1219 -5.55112e-17
812 1 95.9292 103.544 -5.55112e-17
813 2 111.957 64.582 -5.55112e-17
814 1 92.8286 134.71 -5.55112e-17
815 1 109.43 68.6112 -5.55112e-17
816 1 35.0888 30.1258 -5.55112e-17
817 1 81.7425 45.6275 -5.55112e-17
818 1 21.2691 115.801 -5.55112e-17
819 1 201.813 110.322 -5.55112e-17
820 1 209.129 134.191 -5.55112e-17
821 1 108.803 13.1557 -5.55112e-17
822 2 50.638 107.332 -5.55112e-17
823 2 82.9116 179.633 -5.55112e-17
824 1 80.4734 143.185 -5.55112e-17
825 1 133.705 149.454 -5.55112e-17
826 1 126.561 124.144 -5.55112e-17
827 1 55.7275 142.951 -5.55112e-17
828 1 190.844 66.5682 -5.55112e-17
829 1 127.735 42.9319 -5.55112e-17
830 1 80.8493 136.28 -5.55112e-17
831 1 10.4698 191.375 -5.55112e-17
832 1 51.5719 167.572 -5.55112e-17
833 1 58.5857 112.576 -5.55112e-17
834 1 136.25 26.2043 -5.55112e-17
835 1 76.3273 176.918 -5.55112e-17
836 1 36.0628 21.2209 -5.55112e-17
837 1 10.0127 153.494 -5.55112e-17
838 1 156.634 11.0537 -5.55112e-17
839 2 49.4093 179.681 -5.55112e-17
840 1 90.0157 178.996 -5.55112e-17
841 2 197.593 168.677 -5.55112e-17
842 1 157.379 207.149 -5.55112e-17
843 2 127.352 135.535 -5.55112e-17
844 1 174.506 99.7915 -5.55112e-17
845 1 210.907 107.224 -5.55112e-17
846 1 185.277 189.581 -5.55112e-17
847 1 147.369 29.8714 -5.55112e-17
848 1 216.816 27.4734 -5.55112e-17
849 1 64.6975 160.919 -5.55112e-17
850 1 121.575 105.863 -5.55112e-17
851 1 211.13 98.7869 -5.55112e-17
852 1 143.774 197.069 -5.55112e-17
853 1 38.3699 205.443 -5.55112e-17
854 1 102.814 185.793 -5.55112e-17
855 1 182.599 44.0499 -5.55112e-17
856 1 155.509 186.144 -5.55112e-17