ITEM: TIMESTEP
0
ITEM: NUMBER OF ATOMS
7200
ITEM: BOX BOUNDS xy xz yz pp pp pp
0.0000000000000000e+00 2.1900000000000000e+02 0.0000000000000000e+00
0.0000000000000000e+00 2.1900000000000000e+02 0.0000000000000000e+00
-3.6499999999999999e-01 3.6499999999999999e-01 0.0000000000000000e+00
ITEM: ATOMS id type x y z
1 1 28.6686 132.372 -5.55112e-17
2 1 215.033 93.8891 -5.55112e-17
3 1 9.69716 148.002 -5.55112e-17
4 1 215.313 20.0559 -5.55112e-17
5 1 79.9208 98.8896 -5.55112e-17
6 1 7.64078 151.926 -5.55112e-17
7 1 216.419 35.7039 -5.55112e-17
8 2 26.3796 182.267 -5.55112e-17
9 1 100.181 1.31869 -5.55112e-17
10 2 210.167 17.4087 -5.55112e-17
11 1 210.452 119.309 -5.55112e-17
12 1 60.7296 28.8167 -5.55112e-17
13 2 57.3832 165.49 -5.55112e-17
14 1 92.0078 184.858 -5.55112e-17
15 1 71.3655 195.923 -5.55112e-17
16 2 82.826 178.776 -5.55112e-17
17 1 36.4541 106.627 -5.55112e-17
18 2 82.3387 193.78 -5.55112e-17
19 1 195.238 179.602 -5.55112e-17
20 1 69.1816 95.6462 -5.55112e-17
21 1 197.265 182.885 -5.55112e-17
22 2 141.017 210.556 -5.55112e-17
23 2 44.4626 43.1815 -5.55112e-17
24 1 59.8225 204.698 -5.55112e-17
25 1 79.5944 92.7024 -5.55112e-17
26 2 49.0199 97.9067 -5.55112e-17
27 1 88.1105 85.2505 -5.55112e-17
28 2 57.3486 61.0383 -5.55112e-17
29 1 195.626 74.9013 -5.55112e-17
30 1 8.61924 37.9178 -5.55112e-17
31 1 210.454 94.6849 -5.55112e-17
32 1 5.17212 188.441 -5.55112e-17
33 1 200.466 161.48 -5.55112e-17
34 1 90.6031 28.3693 -5.55112e-17
35 1 192.264 96.4236 -5.55112e-17
36 1 209.083 150.287 -5.55112e-17
37 2 61.199 172.366 -5.55112e-17
38 1 48.3964 129.322 -5.55112e-17
39 1 113.255 20.9293 -5.55112e-17
40 1 49.4304 115.906 -5.55112e-17
41 1 74.9415 178.908 -5.55112e-17
42 1 108.711 214.204 -5.55112e-17
43 1 114.021 154.099 -5.55112e-17
44 1 188.968 142.367 -5.55112e-17
45 1 33.6158 106.229 -5.55112e-17
46 1 170.65 127.746 -5.55112e-17
47 1 20.702 20.0942 -5.55112e-17
48 2 174.038 216.456 -5.55112e-17
49 1 128.301 10.8506 -5.55112e-17
50 1 98.446 157.206 -5.55112e-17
51 1 178.351 214.206 -5.55112e-17
52 1 80.2473 51.3666 -5.55112e-17
53 1 163.936 82.8805 -5.55112e-17
54 1 19.7171 38.9988 -5.55112e-17
55 1 21.9794 146.68 -5.55112e-17
56 1 0.54414 80.5119 -5.55112e-17
57 2 197.753 23.9051 -5.55112e-17
58 1 212.775 196.803 -5.55112e-17
59 1 65.8849 53.6058 -5.55112e-17
60 2 57.2854 143.921 -5.55112e-17
61 2 3.64895 144.575 -5.55112e-17
62 1 122.082 91.1784 -5.55112e-17
63 1 188.295 177.955 -5.55112e-17
64 1 88.5157 26.966 -5.55112e-17
65 1 194.161 175.048 -5.55112e-17
66 1 150.913 202.849 -5.55112e-17
67 1 32.3456 29.0513 -5.55112e-17
68 1 93.6206 48.4581 -5.55112e-17
69 1 35.0019 108.853 -5.55112e-17
70 1 169.235 210.49 -5.55112e-17
71 1 143.039 69.3051 -5.55112e-17
72 1 105.422 149.308 -5.55112e-17
73 1 198.838 151.44 -5.55112e-17
74 1 49.2171 26.786 -5.55112e-17
75 2 3.58338 60.7413 -5.55112e-17
76 1 87.179 41.3045 -5.55112e-17
77 1 42.1889 39.1165 -5.55112e-17
78 1 75.8834 171.952 -5.55112e-17
79 2 184.366 15.5639 -5.55112e-17
80 1 167.813 86.1919 -5.55112e-17
81 1 17.456 29.3053 -5.55112e-17
82 1 7.6743 32.5952 -5.55112e-17
83 2 65.1038 2.81203 -5.55112e-17
84 1 111.284 49.0752 -5.55112e-17
85 1 19.1785 198.521 -5.55112e-17
86 1 168.698 46.3697 -5.55112e-17
87 1 46.8841 136.36 -5.55112e-17
88 1 131.197 183.129 -5.55112e-17
89 2 4.33087 177.846 -5.55112e-17
90 2 150.363 60.8305 -5.55112e-17
91 1 206.316 213.878 -5.55112e-17
92 2 70.4751 19.2662 -5.55112e-17
93 1 178.542 74.9447 -5.55112e-17
94 2 50.1961 54.1954 -5.55112e-17
95 1 129.319 49.3982 -5.55112e-17
96 1 137.499 10.6787 -5.55112e-17
97 1 183.222 58.075 -5.55112e-17
98 1 99.6208 136.092 -5.55112e-17
99 1 139.758 9.96832 -5.55112e-17
100 1 124.732 78.0502 -5.55112e-17
101 1 204.438 62.3899 -5.55112e-17
102 1 109.336 204.796 -5.55112e-17
103 1 170.777 169.825 -5.55112e-17
104 1 136.913 167.322 -5.55112e-17
105 1 214.374 28.4136 -5.55112e-17
106 1 176.432 211.818 -5.55112e-17
107 2 147.406 0.228256 -5.55112e-17
108 1 64.5244 134.289 -5.55112e-17
109 1 5.36505 130.728 -5.55112e-17
110 1 204.219 190.97 -5.55112e-17
111 1 109.398 125.901 -5.55112e-17
112 1 54.367 214.01 -5.55112e-17
113 1 217.008 122.859 -5.55112e-17
114 1 147.599 85.3295 -5.55112e-17
115 1 17.7494 16.727 -5.55112e-17
116 2 54.5817 139.267 -5.55112e-17
117 1 64.2881 206.46 -5.55112e-17
118 1 84.9561 62.3097 -5.55112e-17
119 2 92.3927 39.726 -5.55112e-17
120 1 59.059 42.262 -5.55112e-17
121 1 189.084 182.224 -5.55112e-17
122 1 136.6 3.26509 -5.55112e-17
123 1 103.045 157.217 -5.55112e-17
124 1 119.586 95.6957 -5.55112e-17
125 1 178.127 64.368 -5.55112e-17
126 1 41.4772 20.6746 -5.55112e-17
127 1 53.4235 187.746 -5.55112e-17
128 1 185.182 62.7722 -5.55112e-17
129 1 210.53 160.403 -5.55112e-17
130 1 183.371 12.4689 -5.55112e-17
131 1 83.6611 138.265 -5.55112e-17
132 2 108.479 15.192 -5.55112e-17
133 1 86.3729 13.6401 -5.55112e-17
134 1 172.159 94.5104 -5.55112e-17
135 1 153.462 203.024 -5.55112e-17
136 1 176.403 59.7384 -5.55112e-17
137 1 70.2113 62.9571 -5.55112e-17
138 1 98.5551 69.3663 -5.55112e-17
139 1 65.437 104.79 -5.55112e-17
140 2 146.799 92.4851 -5.55112e-17
141 1 67.2006 215.726 -5.55112e-17
142 2 10.3993 128.09 -5.55112e-17
143 1 189.746 190.058 -5.55112e-17
144 2 99.7858 6.05211 -5.55112e-17
145 1 165.328 9.78259 -5.55112e-17
146 1 69.9222 57.3618 -5.55112e-17
147 1 215.363 10.7586 -5.55112e-17
148 1 50.24 19.0751 -5.55112e-17
149 1 181.621 139.955 -5.55112e-17
150 1 96.8722 128.883 -5.55112e-17
151 1 124.447 30.5287 -5.55112e-17
152 1 56.3235 102.694 -5.55112e-17
153 2 199.391 116.639 -5.55112e-17
154 1 28.3355 192.021 -5.55112e-17
155 1 164.051 172.529 -5.55112e-17
156 2 144.503 210.434 -5.55112e-17
157 1 3.71221 40.7959 -5.55112e-17
158 1 167.886 9.72193 -5.55112e-17
159 1 142.592 203.708 -5.55112e-17
160 1 189.87 167.514 -5.55112e-17
161 1 61.306 113.9 -5.55112e-17
162 1 39.8282 153.41 -5.55112e-17
163 1 171.854 140.673 -5.55112e-17
164 1 31.2785 73.3869 -5.55112e-17
165 1 75.9318 216.349 -5.55112e-17
166 2 103.802 110.659 -5.55112e-17
167 1 19.9804 157.885 -5.55112e-17
168 1 10.9804 14.7819 -5.55112e-17
169 1 59.2552 192.899 -5.55112e-17
170 1 80.3011 108.192 -5.55112e-17
171 1 107.71 77.8462 -5.55112e-17
172 1 3.20355 19.129 -5.55112e-17
173 1 46.8484 175.451 -5.55112e-17
174 1 207.749 12.8989 -5.55112e-17
175 2 26.3116 14.415 -5.55112e-17
176 1 187.098 66.6014 -5.55112e-17
177 2 81.5293 125.33 -5.55112e-17
178 1 205.516 64.9432 -5.55112e-17
179 1 58.4158 31.147 -5.55112e-17
180 1 66.1811 16.1977 -5.55112e-17
181 1 116.097 200.91 -5.55112e-17
182 2 25.0301 95.602 -5.55112e-17
183 1 41.128 129.443 -5.55112e-17
184 1 108.091 75.4701 -5.55112e-17
185 2 130.75 129.779 -5.55112e-17
186 2 197.554 48.1427 -5.55112e-17
187 1 100.12 205.273 -5.55112e-17
188 1 33.336 197.286 -5.55112e-17
189 1 1.92388 49.9167 -5.55112e-17
190 2 43.3391 107.835 -5.55112e-17
191 1 195.527 163.557 -5.55112e-17
192 2 128.539 5.15949 -5.55112e-17
193 2 72.1111 94.4184 -5.55112e-17
194 1 147.263 70.8196 -5.55112e-17
195 1 38.38 208.158 -5.55112e-17
196 1 209.649 192.982 -5.55112e-17
197 1 178.909 59.4997 -5.55112e-17
198 2 168.157 54.6453 -5.55112e-17
199 1 188.959 97.6642 -5.55112e-17
200 1 59.1253 97.0116 -5.55112e-17
201 2 216.524 202.055 -5.55112e-17
202 1 216.237 112.766 -5.55112e-17
203 1 47.4593 43.0329 -5.55112e-17
204 1 60.4487 52.1867 -5.55112e-17
205 2 185.063 93.459 -5.55112e-17
206 1 179.28 46.1874 -5.55112e-17
207 1 114.847 196.854 -5.55112e-17
208 1 41.2675 144.628 -5.55112e-17
209 1 149.177 5.78395 -5.55112e-17
210 1 173.175 127.135 -5.55112e-17
211 2 38.1525 129.829 -5.55112e-17
212 1 64.0742 8.28939 -5.55112e-17
213 1 126.971 20.3355 -5.55112e-17
214 1 9.47241 17.1963 -5.55112e-17
215 1 148.803 75.2603 -5.55112e-17
216 1 91.4963 13.9852 -5.55112e-17
217 1 128.529 66.016 -5.55112e-17
218 2 66.6969 207.538 -5.55112e-17
219 1 128.875 39.6668 -5.55112e-17
220 2 76.2539 120.603 -5.55112e-17
221 1 58.2244 73.8747 -5.55112e-17
222 1 3.17494 109.229 -5.55112e-17
223 1 172.65 71.0694 -5.55112e-17
224 2 206.433 185.741 -5.55112e-17
225 1 4.27995 134.515 -5.55112e-17
226 1 197.141 58.3781 -5.55112e-17
227 2 140.201 65.7368 -5.55112e-17
228 1 51.9137 214.563 -5.55112e-17
229 1 50.5879 177.909 -5.55112e-17
230 1 34.0479 9.43383 -5.55112e-17
231 1 119.99 51.9618 -5.55112e-17
232 1 139.191 86.1517 -5.55112e-17
233 1 99.492 129.101 -5.55112e-17
234 1 152.35 78.3221 -5.55112e-17
235 1 208.271 188.209 -5.55112e-17
236 1 212.326 93.0607 -5.55112e-17
237 1 202.248 20.0713 -5.55112e-17
238 1 122.697 174.264 -5.55112e-17
239 2 195.944 39.3605 -5.55112e-17
240 1 168.377 137.019 -5.55112e-17
241 2 89.497 3.86852 -5.55112e-17
242 2 106.493 210.212 -5.55112e-17
243 2 125.936 188.593 -5.55112e-17
244 1 91.4896 158.49 -5.55112e-17
245 1 79.3771 83.0935 -5.55112e-17
246 1 50.5932 196.37 -5.55112e-17
247 1 67.9726 14.6204 -5.55112e-17
248 1 147.912 65.3762 -5.55112e-17
249 1 142.305 118.864 -5.55112e-17
250 2 79.6938 186.242 -5.55112e-17
251 1 185.967 40.3001 -5.55112e-17
252 1 30.1199 208.353 -5.55112e-17
253 1 34.7374 118.504 -5.55112e-17
254 2 145.68 139.893 -5.55112e-17
255 1 6.87615 190.644 -5.55112e-17
256 1 84.17 213.22 -5.55112e-17
257 1 212.191 155.964 -5.55112e-17
258 2 70.1576 120.196 -5.55112e-17
259 1 78.8641 165.933 -5.55112e-17
260 1 166.049 99.404 -5.55112e-17
261 1 44.5719 218.238 -5.55112e-17
262 1 94.6054 63.9932 -5.55112e-17
263 1 212.22 21.4453 -5.55112e-17
264 1 12.6606 80.6192 -5.55112e-17
265 1 169.502 43.755 -5.55112e-17
266 1 40.2802 137.132 -5.55112e-17
267 1 147.465 204.864 -5.55112e-17
268 1 5.81916 19.2119 -5.55112e-17
269 1 157.121 3.50336 -5.55112e-17
270 1 55.6637 167.947 -5.55112e-17
271 1 80.1937 179.924 -5.55112e-17
272 1 95.3359 164.315 -5.55112e-17
273 1 155.045 40.0249 -5.55112e-17
274 2 29.4298 108.137 -5.55112e-17
275 1 59.1683 115.201 -5.55112e-17
276 2 161.507 187.005 -5.55112e-17
277 2 36.1412 121.221 -5.55112e-17
278 1 154.184 147.591 -5.55112e-17
279 2 72.5803 6.93933 -5.55112e-17
280 1 176.265 66.3065 -5.55112e-17
281 1 174.873 25.2008 -5.55112e-17
282 1 179.244 144.909 -5.55112e-17
283 1 47.6041 147.291 -5.55112e-17
284 1 213.904 91.0258 -5.55112e-17
285 1 180.05 30.1093 -5.55112e-17
286 2 152.804 83.707 -5.55112e-17
287 1 14.413 7.50756 -5.55112e-17
288 1 40.8149 126.688 -5.55112e-17
289 1 27.6778 207.198 -5.55112e-17
290 1 196.144 99.5523 -5.55112e-17
291 1 189.729 4.02806 -5.55112e-17
292 2 39.2802 100.938 -5.55112e-17
293 2 64.4476 192.075 -5.55112e-17
294 1 76.9849 6.03097 -5.55112e-17
295 1 83.5015 4.22351 -5.55112e-17
296 1 90.8328 205.33 -5.55112e-17
297 1 209.56 62.3977 -5.55112e-17
298 1 91.0712 34.3434 -5.55112e-17
299 1 147.825 27.3266 -5.55112e-17
300 2 38.2209 126.618 -5.55112e-17
301 1 122.486 169.885 -5.55112e-17
302 1 171.875 43.3503 -5.55112e-17
303 2 3.98938 155.508 -5.55112e-17
304 2 184.653 120.92 -5.55112e-17
305 1 78.6819 13.4321 -5.55112e-17
306 1 213.39 5.13108 -5.55112e-17
307 1 46.7216 57.9861 -5.55112e-17
308 1 126.096 0.295966 -5.55112e-17
309 2 147.309 128.062 -5.55112e-17
310 1 7.63136 5.04291 -5.55112e-17
311 1 144.333 117.714 -5.55112e-17
312 1 12.4118 66.0805 -5.55112e-17
313 2 213.57 35.8388 -5.55112e-17
314 1 190.008 137.857 -5.55112e-17
315 1 154.947 120 -5.55112e-17
316 1 181.095 214.499 -5.55112e-17
317 1 1.96596 207.123 -5.55112e-17
318 1 187.122 122.984 -5.55112e-17
319 1 24.8725 215.143 -5.55112e-17
320 1 153.776 70.453 -5.55112e-17
321 1 102.789 72.4927 -5.55112e-17
322 1 102.574 46.3197 -5.55112e-17
323 1 210.763 88.3858 -5.55112e-17
324 1 50.6069 107.951 -5.55112e-17
325 1 101.195 153.54 -5.55112e-17
326 1 69.0583 122.916 -5.55112e-17
327 2 163.879 31.9469 -5.55112e-17
328 1 170.517 85.3663 -5.55112e-17
329 2 138.225 24.9487 -5.55112e-17
330 1 76.1324 66.9544 -5.55112e-17
331 1 115.4 46.2012 -5.55112e-17
332 2 78.9277 75.507 -5.55112e-17
333 1 100.885 76.5095 -5.55112e-17
334 1 91.8694 63.0383 -5.55112e-17
335 1 192.485 4.71377 -5.55112e-17
336 1 68.3881 98.4188 -5.55112e-17
337 1 104.961 67.7528 -5.55112e-17
338 1 20.0395 3.2182 -5.55112e-17
339 1 133.854 49.4214 -5.55112e-17
340 1 108.103 18.3172 -5.55112e-17
341 1 150.309 94.9589 -5.55112e-17
342 1 38.484 170.308 -5.55112e-17
343 1 105.325 79.1015 -5.55112e-17
344 1 66.499 197.764 -5.55112e-17
345 1 56.3815 1.62321 -5.55112e-17
346 1 66.4408 9.23365 -5.55112e-17
347 1 40.0991 5.69839 -5.55112e-17
348 1 12.6682 11.6533 -5.55112e-17
349 1 0.403509 185.055 -5.55112e-17
350 2 175.793 128.479 -5.55112e-17
351 1 184.971 113.914 -5.55112e-17
352 1 187.977 120.05 -5.55112e-17
353 1 202.236 115.383 -5.55112e-17
354 1 214.875 138.799 -5.55112e-17
355 1 124.408 110.721 -5.55112e-17
356 1 98.9183 154.684 -5.55112e-17
357 1 60.4906 187.617 -5.55112e-17
358 1 202.662 22.5233 -5.55112e-17
359 1 211.895 128.647 -5.55112e-17
360 1 187.491 133.675 -5.55112e-17
361 1 174.431 141.799 -5.55112e-17
362 1 96.2329 158.552 -5.55112e-17
363 1 72.9713 99.2294 -5.55112e-17
364 2 73.3511 176.562 -5.55112e-17
365 1 63.2472 63.6925 -5.55112e-17
366 1 0.561332 187.74 -5.55112e-17
367 1 205.607 81.0813 -5.55112e-17
368 1 24.6799 169.562 -5.55112e-17
369 2 10.3805 139.612 -5.55112e-17
370 1 188.375 88.5239 -5.55112e-17
371 1 214.819 8.24159 -5.55112e-17
372 2 84.625 6.65845 -5.55112e-17
373 2 178.871 168.64 -5.55112e-17
374 1 4.22778 111.679 -5.55112e-17
375 1 157.338 206.391 -5.55112e-17
376 1 186.588 175.706 -5.55112e-17
377 1 4.56783 114.322 -5.55112e-17
378 1 180.069 195.527 -5.55112e-17
379 1 27.8208 37.2905 -5.55112e-17
380 1 152.674 15.0558 -5.55112e-17
381 1 195.162 7.69908 -5.55112e-17
382 1 218.409 142.163 -5.55112e-17
383 1 189.828 112.075 -5.55112e-17
384 1 11.2403 177.967 -5.55112e-17
385 1 179.525 84.7299 -5.55112e-17
386 2 69.9537 146.585 -5.55112e-17
387 1 41.5858 23.2978 -5.55112e-17
388 1 159.187 33.8645 -5.55112e-17
389 1 106.549 110.929 -5.55112e-17
390 2 107.047 40.3523 -5.55112e-17
391 2 95.2457 98.081 -5.55112e-17
392 1 26.3113 86.1504 -5.55112e-17
393 1 36.2077 174.008 -5.55112e-17
394 1 47.6476 55.6524 -5.55112e-17
395 1 127.623 204.07 -5.55112e-17
396 1 165.416 26.1794 -5.55112e-17
397 1 2.33282 211.792 -5.55112e-17
398 1 100.892 109.794 -5.55112e-17
399 1 123.373 128.222 -5.55112e-17
400 1 110.354 33.8219 -5.55112e-17
401 1 84.7232 47.9943 -5.55112e-17
402 2 79.8967 10.5956 -5.55112e-17
403 1 32.1446 34.1185 -5.55112e-17
404 1 128.611 210.589 -5.55112e-17
405 1 57.7528 107.864 -5.55112e-17
406 1 129.796 164.382 -5.55112e-17
407 2 143.671 183.956 -5.55112e-17
408 1 98.2608 34.663 -5.55112e-17
409 1 118.851 36.7527 -5.55112e-17
410 1 105.277 32.0097 -5.55112e-17
411 1 52.4477 41.9984 -5.55112e-17
412 1 131.868 147.361 -5.55112e-17
413 1 6.0439 186.275 -5.55112e-17
414 1 110.434 165.796 -5.55112e-17
415 1 147.129 163.37 -5.55112e-17
416 1 196.947 13.3528 -5.55112e-17
417 1 31.2876 106.19 -5.55112e-17
418 2 105.215 140.315 -5.55112e-17
419 1 188.556 215.725 -5.55112e-17
420 2 122.759 15.7257 -5.55112e-17
421 1 205.793 153.705 -5.55112e-17
422 1 112.457 142.409 -5.55112e-17
423 2 63.2342 212.316 -5.55112e-17
424 1 22.6556 140.125 -5.55112e-17
425 1 57.2532 49.5067 -5.55112e-17
426 1 166.728 79.4952 -5.55112e-17
427 1 132.735 31.7451 -5.55112e-17
428 1 155.336 158.735 -5.55112e-17
429 1 161.94 40.7867 -5.55112e-17
430 1 180.733 75.6117 -5.55112e-17
431 1 177.656 86.9505 -5.55112e-17
432 1 67.7407 85.7723 -5.55112e-17
433 1 51.7908 134.778 -5.55112e-17
434 1 46.5832 25.7738 -5.55112e-17
435 1 71.0058 210.604 -5.55112e-17
436 1 57.0271 16.1253 -5.55112e-17
437 1 54.6268 123.993 -5.55112e-17
438 2 2.24162 204.157 -5.55112e-17
439 1 186.379 138.853 -5.55112e-17
440 1 121.443 139.009 -5.55112e-17
441 1 164.697 196.21 -5.55112e-17
442 1 39.3174 61.0937 -5.55112e-17
443 1 205.403 143.865 -5.55112e-17
444 1 207.535 164.054 -5.55112e-17
445 1 3.48554 123.654 -5.55112e-17
446 1 24.8585 162.788 -5.55112e-17
447 1 22.1913 214.55 -5.55112e-17
448 1 102.467 218.252 -5.55112e-17
449 1 126.277 85.252 -5.55112e-17
450 1 24.3374 87.3938 -5.55112e-17
451 1 192.204 43.1007 -5.55112e-17
452 1 125.39 118.137 -5.55112e-17
453 1 203.382 36.1146 -5.55112e-17
454 1 141.917 133.684 -5.55112e-17
455 1 72.2655 188.94 -5.55112e-17
456 1 154.979 95.5771 -5.55112e-17
457 1 35.4085 200.728 -5.55112e-17
458 1 200.534 51.9758 -5.55112e-17
459 1 107.682 43.2981 -5.55112e-17
460 1 209.254 14.5069 -5.55112e-17
461 1 17.5077 87.2704 -5.55112e-17
462 1 12.6618 72.8876 -5.55112e-17
463 1 38.821 24.7386 -5.55112e-17
464 1 34.3601 47.7442 -5.55112e-17
465 1 163.976 65.5164 -5.55112e-17
466 1 201.665 202.228 -5.55112e-17
467 1 155.17 54.7995 -5.55112e-17
468 1 44.495 101.697 -5.55112e-17
469 1 130.085 62.2518 -5.55112e-17
470 1 37.8614 132.868 -5.55112e-17
471 1 154.031 209.937 -5.55112e-17
472 1 146.899 87.5665 -5.55112e-17
473 1 27.6126 155.932 -5.55112e-17
474 1 16.8357 198.897 -5.55112e-17
475 1 94.3551 13.8128 -5.55112e-17
476 2 174.488 159.191 -5.55112e-17
477 1 91.4893 161.012 -5.55112e-17
478 1 129.538 2.29045 -5.55112e-17
479 1 143.818 24.4103 -5.55112e-17
480 1 105.912 19.2164 -5.55112e-17
481 1 181.658 133.087 -5.55112e-17
482 1 188.877 36.3488 -5.55112e-17
483 1 50.2059 21.6504 -5.55112e-17
484 2 40.0977 15.6784 -5.55112e-17
485 1 168.856 124.271 -5.55112e-17
486 1 117.577 175.535 -5.55112e-17
487 1 20.2283 17.6665 -5.55112e-17
488 1 122.457 100.776 -5.55112e-17
489 1 133.023 136.737 -5.55112e-17
490 1 89.4778 49.73 -5.55112e-17
491 1 126.737 96.8504 -5.55112e-17
492 1 46.1919 73.9493 -5.55112e-17
493 1 7.47045 56.402 -5.55112e-17
494 1 209.658 202.382 -5.55112e-17
495 1 10.9557 39.0027 -5.55112e-17
496 2 195.806 185.168 -5.55112e-17
497 1 157.676 58.7299 -5.55112e-17
498 1 145.376 172.304 -5.55112e-17
499 2 122.921 9.57909 -5.55112e-17
500 1 150.826 173.641 -5.55112e-17
501 2 59.0347 91.9305 -5.55112e-17
502 2 202.548 82.4496 -5.55112e-17
503 1 179.414 204.012 -5.55112e-17
504 1 145.811 29.1253 -5.55112e-17
505 1 208.889 46.4447 -5.55112e-17
506 1 13.7908 201.976 -5.55112e-17
507 1 36.0447 94.8581 -5.55112e-17
508 1 67.2737 190.626 -5.55112e-17
509 2 66.8673 109.654 -5.55112e-17
510 2 40.9258 200.716 -5.55112e-17
511 1 105.635 8.97088 -5.55112e-17
512 2 102.072 145.406 -5.55112e-17
513 1 117.915 165.255 -5.55112e-17
514 1 111.378 87.6851 -5.55112e-17
515 1 22.1233 74.2809 -5.55112e-17
516 1 45.795 130.042 -5.55112e-17
517 1 142.791 50.8353 -5.55112e-17
518 2 208.423 211.526 -5.55112e-17
519 1 98.4726 80.9276 -5.55112e-17
520 2 68.3005 54.9959 -5.55112e-17
521 1 137.811 177.168 -5.55112e-17
522 1 88.55 214.876 -5.55112e-17
523 1 26.2274 67.3621 -5.55112e-17
524 1 98.122 138.716 -5.55112e-17
525 1 163.758 168.139 -5.55112e-17
526 1 183.964 83.5665 -5.55112e-17
527 1 204.149 92.8324 -5.55112e-17
528 1 10.8439 36.4187 -5.55112e-17
529 1 58.0792 211.508 -5.55112e-17
530 1 199.815 182.178 -5.55112e-17
531 1 7.7464 27.5048 -5.55112e-17
532 1 175.753 192.014 -5.55112e-17
533 1 15.7293 18.1007 -5.55112e-17
534 1 202.892 24.8623 -5.55112e-17
535 1 120.936 172.444 -5.55112e-17
536 1 100.527 71.5209 -5.55112e-17
537 1 2.97387 63.4151 -5.55112e-17
538 1 45.9654 108.794 -5.55112e-17
539 1 48.5315 10.2027 -5.55112e-17
540 1 88.0737 113.133 -5.55112e-17
541 1 13.773 132.711 -5.55112e-17
542 1 180.408 80.0549 -5.55112e-17
543 1 182.202 148.161 -5.55112e-17
544 1 41.1903 112.107 -5.55112e-17
545 1 58.4777 171.411 -5.55112e-17
546 1 10.5027 155.731 -5.55112e-17
547 1 148.222 24.8519 -5.55112e-17
548 1 212.898 18.9969 -5.55112e-17
549 1 82.3042 147.698 -5.55112e-17
550 2 137.259 150.426 -5.55112e-17
551 2 92.0895 8.82079 -5.55112e-17
552 2 151 208.242 -5.55112e-17
553 1 85.8982 141.938 -5.55112e-17
554 1 163.889 34.9496 -5.55112e-17
555 2 56.7981 200.618 -5.55112e-17
556 1 207.243 202.548 -5.55112e-17
557 1 137.098 37.79 -5.55112e-17
558 1 164.064 188.839 -5.55112e-17
559 1 94.6766 7.12367 -5.55112e-17
560 1 10.5605 106.438 -5.55112e-17
561 1 161.249 176.989 -5.55112e-17
562 1 38.3589 80.5777 -5.55112e-17
563 2 198.512 215.409 -5.55112e-17
564 1 148.23 77.9172 -5.55112e-17
565 1 100.436 54.6256 -5.55112e-17
566 1 117.918 46.3626 -5.55112e-17
567 1 177.621 112.991 -5.55112e-17
568 1 77.8897 163.437 -5.55112e-17
569 1 87.9914 99.349 -5.55112e-17
570 1 119.067 180.019 -5.55112e-17
571 1 44.8927 151.359 -5.55112e-17
572 1 92.1606 182.041 -5.55112e-17
573 1 81.8357 77.2819 -5.55112e-17
574 1 157.841 22.6669 -5.55112e-17
575 1 148.119 99.5107 -5.55112e-17
576 1 141.69 58.0311 -5.55112e-17
577 1 208.355 171.215 -5.55112e-17
578 1 181.564 6.91796 -5.55112e-17
579 1 14.1987 174.396 -5.55112e-17
580 1 181.532 202.405 -5.55112e-17
581 1 202.946 57.4583 -5.55112e-17
582 1 217.211 64.857 -5.55112e-17
583 1 207.408 206.876 -5.55112e-17
584 2 111.051 10.214 -5.55112e-17
585 1 138.696 22.1208 -5.55112e-17
586 1 3.60889 209.413 -5.55112e-17
587 1 170.127 95.6979 -5.55112e-17
588 1 87.8275 129.262 -5.55112e-17
589 1 65.0533 199.8 -5.55112e-17
590 1 3.76506 7.52752 -5.55112e-17
591 1 29.5423 34.0504 -5.55112e-17
592 1 116.783 190.068 -5.55112e-17
593 1 24.7523 206.059 -5.55112e-17
594 1 188.388 39.3926 -5.55112e-17
595 1 66.5527 181.146 -5.55112e-17
596 1 60.255 213.046 -5.55112e-17
597 2 76.8096 133.24 -5.55112e-17
598 1 65.3526 195.477 -5.55112e-17
599 1 132.623 132.293 -5.55112e-17
600 1 48.8986 140.674 -5.55112e-17
601 1 217.088 209.657 -5.55112e-17
602 1 145.506 130.923 -5.55112e-17
603 1 50.3377 147.797 -5.55112e-17
604 1 175.885 80.8181 -5.55112e-17
605 2 200.777 37.2613 -5.55112e-17
606 1 131.027 95.8572 -5.55112e-17
607 2 154.623 155.63 -5.55112e-17
608 1 77.408 15.2116 -5.55112e-17
609 1 213.858 74.683 -5.55112e-17
610 1 66.5946 204.465 -5.55112e-17
611 1 203.29 157.8 -5.55112e-17
612 1 176.854 68.8962 -5.55112e-17
613 1 74.453 28.2826 -5.55112e-17
614 2 82.538 202.881 -5.55112e-17
615 1 71.9868 109.656 -5.55112e-17
616 1 53.1767 216.631 -5.55112e-17
617 1 196.248 93.6705 -5.55112e-17
618 1 217.687 98.5492 -5.55112e-17
619 1 136.156 20.1677 -5.55112e-17
620 1 55.0357 207.935 -5.55112e-17
621 1 29.6762 206.009 -5.55112e-17
622 1 21.8637 15.9528 -5.55112e-17
623 1 72.6525 63.595 -5.55112e-17
624 1 30.3155 184.439 -5.55112e-17
625 1 102.954 202.164 -5.55112e-17
626 1 212.522 24.1114 -5.55112e-17
627 1 216.645 150.543 -5.55112e-17
628 1 158.76 106.849 -5.55112e-17
629 1 128.656 199.252 -5.55112e-17
630 2 91.7741 93.927 -5.55112e-17
631 1 18.0131 110.264 -5.55112e-17
632 1 200.15 6.95251 -5.55112e-17
633 1 198.659 148.496 -5.55112e-17
634 1 152.119 178.661 -5.55112e-17
635 1 11.5972 203.4 -5.55112e-17
636 1 176.855 15.1477 -5.55112e-17
637 1 82.7429 112.735 -5.55112e-17
638 1 202.249 129.247 -5.55112e-17
639 2 35.8002 192.399 -5.55112e-17
640 1 144.211 47.0566 -5.55112e-17
641 1 192.587 132.86 -5.55112e-17
642 1 120.181 196.127 -5.55112e-17
643 2 177.059 208.83 -5.55112e-17
644 1 92.2943 115.26 -5.55112e-17
645 1 107.745 197.155 -5.55112e-17
646 2 134.706 134.489 -5.55112e-17
647 1 175.17 103.994 -5.55112e-17
648 1 210.103 66.7924 -5.55112e-17
649 2 114.124 210.233 -5.55112e-17
650 1 94.1171 73.0293 -5.55112e-17
651 1 62.4626 165.025 -5.55112e-17
652 1 46.5031 155.456 -5.55112e-17
653 1 162.265 170.061 -5.55112e-17
654 1 139.95 151.071 -5.55112e-17
655 2 78.4573 89.9869 -5.55112e-17
656 1 27.9791 23.8468 -5.55112e-17
657 2 197.308 165.909 -5.55112e-17
658 1 187.334 69.8184 -5.55112e-17
659 2 186.7 22.8905 -5.55112e-17
660 1 199.596 212.586 -5.55112e-17
661 1 132.362 75.5323 -5.55112e-17
662 1 68.4923 65.4539 -5.55112e-17
663 1 87.436 31.5613 -5.55112e-17
664 1 35.4848 139.674 -5.55112e-17
665 1 177.393 17.6099 -5.55112e-17
666 2 25.8674 21.9628 -5.55112e-17
667 1 78.7754 87.406 -5.55112e-17
668 2 16.7391 214.204 -5.55112e-17
669 1 186.784 90.8467 -5.55112e-17
670 1 155.585 88.4094 -5.55112e-17
671 2 98.0591 175.757 -5.55112e-17
672 1 101.196 112.415 -5.55112e-17
673 1 173.455 73.5219 -5.55112e-17
674 1 51.3592 74.9867 -5.55112e-17
675 1 100.681 48.2095 -5.55112e-17
676 1 192.871 75.0453 -5.55112e-17
677 1 144.215 167.337 -5.55112e-17
678 1 85.1617 99.231 -5.55112e-17
679 2 46.184 200.425 -5.55112e-17
680 1 93.6697 157.625 -5.55112e-17
681 2 149.339 3.02243 -5.55112e-17
682 1 5.4329 193.472 -5.55112e-17
683 1 96.465 184.871 -5.55112e-17
684 1 22.8668 34.788 -5.55112e-17
685 1 158.773 125.895 -5.55112e-17
686 1 7.65767 120.543 -5.55112e-17
687 1 175.991 169.176 -5.55112e-17
688 1 39.4312 218.615 -5.55112e-17
689 2 49.5594 92.523 -5.55112e-17
690 1 201.518 216.884 -5.55112e-17
691 1 25.2118 81.8871 -5.55112e-17
692 1 86.8108 134.711 -5.55112e-17
693 1 48.5527 157.46 -5.55112e-17
694 1 207.65 180.468 -5.55112e-17
695 1 31.2829 8.35029 -5.55112e-17
696 1 127.964 24.3403 -5.55112e-17
697 1 139.331 218.533 -5.55112e-17
698 1 9.25632 102.606 -5.55112e-17
699 1 149.523 31.8466 -5.55112e-17
700 1 151.547 98.7722 -5.55112e-17
701 1 63.107 22.7043 -5.55112e-17
702 1 38.3443 180.473 -5.55112e-17
703 2 155.053 164.179 -5.55112e-17
704 1 56.6682 141.125 -5.55112e-17
705 2 176.668 36.6648 -5.55112e-17
706 1 23.9628 109.396 -5.55112e-17
707 1 205.794 14.7299 -5.55112e-17
708 1 209.983 123.906 -5.55112e-17
709 1 70.9592 198.622 -5.55112e-17
710 1 24.5444 90.1154 -5.55112e-17
711 1 119.302 117.113 -5.55112e-17
712 1 138.311 155.404 -5.55112e-17
713 1 125.116 121.092 -5.55112e-17
714 1 208.82 121.127 -5.55112e-17
715 1 23.5296 8.9324 -5.55112e-17
716 1 41.8471 79.7746 -5.55112e-17
717 1 119.432 130.617 -5.55112e-17
718 1 209.103 127.938 -5.55112e-17
719 2 213.968 71.7961 -5.55112e-17
720 1 210.42 48.9244 -5.55112e-17
721 1 207.065 148.272 -5.55112e-17
722 1 145.763 207.188 -5.55112e-17
723 2 15.0162 208.074 -5.55112e-17
724 1 137.532 200.391 -5.55112e-17
725 1 204.849 21.0625 -5.55112e-17
726 1 169.532 93.3004 -5.55112e-17
727 1 71.8817 68.2571 -5.55112e-17
728 2 79.8589 47.6426 -5.55112e-17
729 1 61.7927 160.173 -5.55112e-17
730 1 184.566 206.398 -5.55112e-17
731 1 38.9313 47.9055 -5.55112e-17
732 1 203.044 85.5307 -5.55112e-17
733 1 193.845 94.769 -5.55112e-17
734 1 59.2723 141.086 -5.55112e-17
735 1 110.614 75.0728 -5.55112e-17
736 2 180.701 72.7709 -5.55112e-17
737 1 189.535 10.817 -5.55112e-17
738 1 95.1407 215.639 -5.55112e-17
739 1 129.411 148.138 -5.55112e-17
740 1 63.386 100.801 -5.55112e-17
741 2 20.9431 196.324 -5.55112e-17
742 1 95.3129 88.3543 -5.55112e-17
743 1 26.9435 153.351 -5.55112e-17
744 2 60.1005 195.661 -5.55112e-17
745 1 54.2831 116.848 -5.55112e-17
746 1 71.0939 32.8681 -5.55112e-17
747 2 163.81 136.75 -5.55112e-17
748 1 177.647 25.2258 -5.55112e-17
749 1 109.433 200.631 -5.55112e-17
750 1 90.3141 52.1357 -5.55112e-17
751 1 0.342493 88.8267 -5.55112e-17
752 1 163.293 26.9862 -5.55112e-17
753 1 89.1371 178.443 -5.55112e-17
754 1 116.444 29.4989 -5.55112e-17
755 1 145.802 122.705 -5.55112e-17
756 2 170.659 98.229 -5.55112e-17
757 1 37.3536 118.311 -5.55112e-17
758 1 208.429 30.7134 -5.55112e-17
759 1 114.532 14.3574 -5.55112e-17
760 1 149.017 211.257 -5.55112e-17
761 1 99.5783 171.257 -5.55112e-17
762 1 45.1989 173.068 -5.55112e-17
763 1 90.2094 16.0345 -5.55112e-17
764 2 199.414 44.8859 -5.55112e-17
765 1 90.8848 103.691 -5.55112e-17
766 1 151.098 216.595 -5.55112e-17
767 1 125.732 64.7556 -5.55112e-17
768 1 171.02 10.21 -5.55112e-17
769 1 129.154 97.4115 -5.55112e-17
770 2 7.79607 107.773 -5.55112e-17
771 1 159.84 206.351 -5.55112e-17
772 1 135.3 148.15 -5.55112e-17
773 1 21.3211 178.472 -5.55112e-17
774 1 34.8617 83.5432 -5.55112e-17
775 1 53.6337 46.4923 -5.55112e-17
776 1 40.0912 31.1451 -5.55112e-17
777 1 150.669 76.6125 -5.55112e-17
778 1 186.788 144.096 -5.55112e-17
779 1 69.0248 180.205 -5.55112e-17
780 1 91.5092 23.1986 -5.55112e-17
781 1 119.463 90.6498 -5.55112e-17
782 1 181.705 90.1879 -5.55112e-17
783 1 216.903 129.428 -5.55112e-17
784 2 97.6685 29.1127 -5.55112e-17
785 1 2.24049 113.758 -5.55112e-17
786 1 61.7046 177.92 -5.55112e-17
787 1 35.2873 30.9226 -5.55112e-17
788 1 129.962 192.272 -5.55112e-17
789 2 1.21871 65.3638 -5.55112e-17
790 1 1.87231 42.2116 -5.55112e-17
791 2 33.1181 135.816 -5.55112e-17
792 2 127.336 107.015 -5.55112e-17
793 2 110.002 216.872 -5.55112e-17
794 1 201.114 79.601 -5.55112e-17
795 1 30.4301 134.428 -5.55112e-17
796 1 133.5 182.595 -5.55112e-17
797 1 51.0035 216.824 -5.55112e-17
798 2 16.2991 145.393 -5.55112e-17
799 2 111.549 80.0324 -5.55112e-17
800 2 218.949 96.0669 -5.55112e-17
801 1 122.072 77.9909 -5.55112e-17
802 1 130.529 64.9954 -5.55112e-17
803 1 49.1882 69.6395 -5.55112e-17
804 2 165.087 112.508 -5.55112e-17
805 1 100.974 193.837 -5.55112e-17
806 1 80.8252 32.704 -5.55112e-17
807 2 45.3298 98.8247 -5.55112e-17
808 1 185.377 25.2981 -5.55112e-17
809 2 63.3102 154.625 -5.55112e-17
810 1 24.6514 43.8521 -5.55112e-17
811 1 79.7205 151.074 -5.55112e-17
812 1 112.779 216.801 -5.55112e-17
813 2 65.9978 117.76 -5.55112e-17
814 1 91.3342 60.401 -5.55112e-17
815 1 3.97097 35.9084 -5.55112e-17
816 1 65.8426 114.722 -5.55112e-17
817 1 153.399 174.525 -5.55112e-17
818 1 156.611 105.843 -5.55112e-17
819 1 215.543 38.1767 -5.55112e-17
820 1 200.006 29.5726 -5.55112e-17
821 1 3.02235 152.338 -5.55112e-17
822 2 102.956 69.3198 -5.55112e-17
823 2 79.2537 197.902 -5.55112e-17
824 1 205.147 57.9854 -5.55112e-17
825 1 13.0167 32.5197 -5.55112e-17
826 1 117.949 85.9644 -5.55112e-17
827 1 208.789 214.744 -5.55112e-17
828 1 43.8989 46.0949 -5.55112e-17
829 1 139.557 175.501 -5.55112e-17
830 1 171.748 5.29074 -5.55112e-17
831 1 211.844 201.433 -5.55112e-17
832 1 51.6641 67.0291 -5.55112e-17
833 1 70.8705 174.921 -5.55112e-17
834 1 107.394 130.595 -5.55112e-17
835 1 40.5544 87.7337 -5.55112e-17
836 1 6.81365 97.1785 -5.55112e-17
837 1 37.442 17.0169 -5.55112e-17
838 1 37.3836 103.087 -5.55112e-17
839 2 207.644 21.6563 -5.55112e-17
840 1 30.3435 51.0323 -5.55112e-17
841 2 119.594 48.6097 -5.55112e-17
842 1 17.4939 97.6994 -5.55112e-17
843 2 113.022 119.742 -5.55112e-17
844 1 190.699 109.796 -5.55112e-17
845 1 35.0016 50.2688 -5.55112e-17
846 1 83.1133 67.4562 -5.55112e-17
847 1 201.376 27.5138 -5.55112e-17
848 1 15.5208 217.165 -5.55112e-17
849 1 144.462 4.87727 -5.55112e-17
850 1 177.012 159.858 -5.55112e-17
851 1 102.302 38.1746 -5.55112e-17
852 1 38.0398 87.6793 -5.55112e-17
853 1 67.8654 27.9979 -5.55112e-17
854 1 200.892 34.0738 -5.55112e-17
855 1 145.4 143.182 -5.55112e-17
856 1 201.995 46.0842 -5.55112e-17