ITEM: TIMESTEP
0
ITEM: NUMBER OF ATOMS
7200
ITEM: BOX BOUNDS xy xz yz pp pp pp
0.0000000000000000e+00 2.1900000000000000e+02 0.0000000000000000e+00
0.0000000000000000e+00 2.1900000000000000e+02 0.0000000000000000e+00
-3.6499999999999999e-01 3.6499999999999999e-01 0.0000000000000000e+00
ITEM: ATOMS id type x y z
1 1 104.963 127.319 -5.55112e-17
2 1 195.389 127.215 -5.55112e-17
3 1 171.157 110.042 -5.55112e-17
4 1 55.0128 113.428 -5.55112e-17
5 1 18.0402 73.5166 -5.55112e-17
6 1 16.256 142.836 -5.55112e-17
7 1 31.484 91.1575 -5.55112e-17
8 2 76.6854 20.2444 -5.55112e-17
9 1 149.893 48.0604 -5.55112e-17
10 2 165.641 128.071 -5.55112e-17
11 1 207.748 130.103 -5.55112e-17
12 1 17.4774 18.0996 -5.55112e-17
13 2 153.468 10.0886 -5.55112e-17
14 1 8.07528 169.119 -5.55112e-17
15 1 29.5689 109.663 -5.55112e-17
16 2 4.33129 44.7714 -5.55112e-17
17 1 54.003 171.062 -5.55112e-17
18 2 205.268 131.401 -5.55112e-17
19 1 19.9029 143.913 -5.55112e-17
20 1 164.202 171.998 -5.55112e-17
21 1 213.139 133.774 -5.55112e-17
22 2 77.1839 145.78 -5.55112e-17
23 2 24.1488 26.5506 -5.55112e-17
24 1 120.512 173.603 -5.55112e-17
25 1 207.359 54.8117 -5.55112e-17
26 2 213.237 20.6185 -5.55112e-17
27 1 149.938 175.297 -5.55112e-17
28 2 46.3484 190.989 -5.55112e-17
29 1 73.762 98.8916 -5.55112e-17
30 1 93.9282 3.91152 -5.55112e-17
31 1 146.496 217.262 -5.55112e-17
32 1 120.107 70.1331 -5.55112e-17
33 1 92.342 91.8001 -5.55112e-17
34 1 134.024 31.5485 -5.55112e-17
35 1 172.149 60.6322 -5.55112e-17
36 1 86.8638 61.1933 -5.55112e-17
37 2 206.486 151.351 -5.55112e-17
38 1 72.2234 71.4014 -5.55112e-17
39 1 22.2143 111.129 -5.55112e-17
40 1 153.325 96.7745 -5.55112e-17
41 1 148.564 89.293 -5.55112e-17
42 1 15.4834 54.8931 -5.55112e-17
43 1 182.788 187.413 -5.55112e-17
44 1 87.6648 0.638787 -5.55112e-17
45 1 107.651 126.849 -5.55112e-17
46 1 9.4246 100.282 -5.55112e-17
47 1 90.7103 65.4795 -5.55112e-17
48 2 104.309 38.2141 -5.55112e-17
49 1 95.7994 146.107 -5.55112e-17
50 1 37.4295 161.259 -5.55112e-17
51 1 0.292678 119.362 -5.55112e-17
52 1 85.5958 197.982 -5.55112e-17
53 1 115.26 144.793 -5.55112e-17
54 1 155.435 49.6575 -5.55112e-17
55 1 41.3077 152.418 -5.55112e-17
56 1 79.6419 65.9182 -5.55112e-17
57 2 79.7876 176.055 -5.55112e-17
58 1 156.18 116.617 -5.55112e-17
59 1 46.9845 218.64 -5.55112e-17
60 2 63.7477 157.35 -5.55112e-17
61 2 159.946 84.828 -5.55112e-17
62 1 66.9256 112.605 -5.55112e-17
63 1 3.90313 30.8427 -5.55112e-17
64 1 5.19173 196.036 -5.55112e-17
65 1 113.699 47.2235 -5.55112e-17
66 1 93.6862 100.817 -5.55112e-17
67 1 100.395 188.967 -5.55112e-17
68 1 101.48 95.8423 -5.55112e-17
69 1 31.225 102.807 -5.55112e-17
70 1 104.633 181.905 -5.55112e-17
71 1 51.2398 24.4442 -5.55112e-17
72 1 133.942 39.6003 -5.55112e-17
73 1 157.928 6.92248 -5.55112e-17
74 1 26.7146 4.05133 -5.55112e-17
75 2 161.349 19.9653 -5.55112e-17
76 1 12.1748 85.1592 -5.55112e-17
77 1 209.398 33.3008 -5.55112e-17
78 1 175.329 123.839 -5.55112e-17
79 2 28.8216 86.6607 -5.55112e-17
80 1 172.404 64.082 -5.55112e-17
81 1 114.271 172.924 -5.55112e-17
82 1 107.364 182.053 -5.55112e-17
83 2 37.2813 108.013 -5.55112e-17
84 1 110.941 138.346 -5.55112e-17
85 1 175.853 76.6353 -5.55112e-17
86 1 199.746 66.4457 -5.55112e-17
87 1 191.377 149.9 -5.55112e-17
88 1 188.323 197.588 -5.55112e-17
89 2 170.166 25.0626 -5.55112e-17
90 2 181.243 116.547 -5.55112e-17
91 1 145.046 201.579 -5.55112e-17
92 2 117.941 210.529 -5.55112e-17
93 1 191.312 90.9653 -5.55112e-17
94 2 13.0855 22.6176 -5.55112e-17
95 1 143.433 203.319 -5.55112e-17
96 1 69.7614 35.0373 -5.55112e-17
97 1 115.39 140.088 -5.55112e-17
98 1 51.5517 127.493 -5.55112e-17
99 1 205.226 18.0314 -5.55112e-17
100 1 152.986 118.914 -5.55112e-17
101 1 214.801 217.848 -5.55112e-17
102 1 186.692 139.242 -5.55112e-17
103 1 103.878 96.7831 -5.55112e-17
104 1 174.245 45.3888 -5.55112e-17
105 1 123.547 6.49653 -5.55112e-17
106 1 10.4576 70.3479 -5.55112e-17
107 2 184.376 23.9229 -5.55112e-17
108 1 216.489 170.654 -5.55112e-17
109 1 205.633 13.9027 -5.55112e-17
110 1 47.0567 185.241 -5.55112e-17
111 1 35.8593 89.2732 -5.55112e-17
112 1 180.405 186.406 -5.55112e-17
113 1 189.479 13.2738 -5.55112e-17
114 1 24.4733 120.353 -5.55112e-17
115 1 166.553 32.9262 -5.55112e-17
116 2 189.247 145.834 -5.55112e-17
117 1 106.341 205.678 -5.55112e-17
118 1 13.598 125.059 -5.55112e-17
119 2 210.132 120.508 -5.55112e-17
120 1 97.4104 121.844 -5.55112e-17
121 1 136.496 116.559 -5.55112e-17
122 1 61.4762 61.3691 -5.55112e-17
123 1 216.82 33.8402 -5.55112e-17
124 1 48.9929 33.8076 -5.55112e-17
125 1 33.9453 91.3183 -5.55112e-17
126 1 95.9948 88.5326 -5.55112e-17
127 1 152.489 99.4864 -5.55112e-17
128 1 205.77 20.3382 -5.55112e-17
129 1 31.4829 42.2686 -5.55112e-17
130 1 176.898 113.309 -5.55112e-17
131 1 54.3148 118.358 -5.55112e-17
132 2 193.232 191.218 -5.55112e-17
133 1 97.0228 86.212 -5.55112e-17
134 1 124.098 110.316 -5.55112e-17
135 1 65.0153 110.497 -5.55112e-17
136 1 163.467 211.582 -5.55112e-17
137 1 34.8483 99.9773 -5.55112e-17
138 1 20.3633 177.156 -5.55112e-17
139 1 19.9896 155.589 -5.55112e-17
140 2 185.237 185.636 -5.55112e-17
141 1 67.7494 56.2715 -5.55112e-17
142 2 16.6925 155.602 -5.55112e-17
143 1 95.6084 141.198 -5.55112e-17
144 2 159.974 99.8273 -5.55112e-17
145 1 30.9421 169.449 -5.55112e-17
146 1 135.223 193.697 -5.55112e-17
147 1 143.638 96.0827 -5.55112e-17
148 1 214.012 168.023 -5.55112e-17
149 1 65.9375 80.2938 -5.55112e-17
150 1 43.4876 195.229 -5.55112e-17
151 1 63.954 174.699 -5.55112e-17
152 1 68.6822 45.8539 -5.55112e-17
153 2 210.515 38.9052 -5.55112e-17
154 1 30.5509 139.396 -5.55112e-17
155 1 173.49 168.802 -5.55112e-17
156 2 216.208 41.2101 -5.55112e-17
157 1 181.408 80.8948 -5.55112e-17
158 1 95.4142 13.9358 -5.55112e-17
159 1 95.2858 203.544 -5.55112e-17
160 1 43.2031 147.375 -5.55112e-17
161 1 9.13905 166.674 -5.55112e-17
162 1 26.6521 21.462 -5.55112e-17
163 1 127.076 184.568 -5.55112e-17
164 1 10.7383 111.454 -5.55112e-17
165 1 88.9452 56.4188 -5.55112e-17
166 2 57.9501 145.582 -5.55112e-17
167 1 185.464 112.576 -5.55112e-17
168 1 24.057 63.6246 -5.55112e-17
169 1 198.125 25.8111 -5.55112e-17
170 1 57.732 163.423 -5.55112e-17
171 1 206.12 99.3032 -5.55112e-17
172 1 195.988 117.912 -5.55112e-17
173 1 165.37 94.3685 -5.55112e-17
174 1 140.903 4.638 -5.55112e-17
175 2 50.2082 38.3761 -5.55112e-17
176 1 217.587 26.5991 -5.55112e-17
177 2 20.2815 134.216 -5.55112e-17
178 1 49.8267 64.1314 -5.55112e-17
179 1 0.523124 53.4781 -5.55112e-17
180 1 210.98 83.3332 -5.55112e-17
181 1 65.5587 105.03 -5.55112e-17
182 2 74.9937 137.767 -5.55112e-17
183 1 161.263 141.445 -5.55112e-17
184 1 83.5453 142.088 -5.55112e-17
185 2 169.097 149.841 -5.55112e-17
186 2 38.2189 152.682 -5.55112e-17
187 1 208.481 89.5399 -5.55112e-17
188 1 153.374 138.877 -5.55112e-17
189 1 2.513 72.359 -5.55112e-17
190 2 38.7387 97.2261 -5.55112e-17
191 1 60.3598 2.64635 -5.55112e-17
192 2 157.06 59.865 -5.55112e-17
193 2 13.9003 164.073 -5.55112e-17
194 1 211.108 22.6007 -5.55112e-17
195 1 106.861 212.947 -5.55112e-17
196 1 63.0232 16.895 -5.55112e-17
197 1 188.602 118.667 -5.55112e-17
198 2 28.0614 193.139 -5.55112e-17
199 1 41.4477 98.2278 -5.55112e-17
200 1 209.341 31.015 -5.55112e-17
201 2 11.4964 48.5079 -5.55112e-17
202 1 23.5235 196.24 -5.55112e-17
203 1 34.724 207.692 -5.55112e-17
204 1 92.1899 87.6379 -5.55112e-17
205 2 190.157 46.215 -5.55112e-17
206 1 158.371 198.071 -5.55112e-17
207 1 203.637 168.141 -5.55112e-17
208 1 90.6787 175.441 -5.55112e-17
209 1 49.4758 128.46 -5.55112e-17
210 1 155.781 133.028 -5.55112e-17
211 2 51.4836 155.682 -5.55112e-17
212 1 21.2822 42.8398 -5.55112e-17
213 1 23.5661 11.1478 -5.55112e-17
214 1 83.8789 147.101 -5.55112e-17
215 1 127.1 23.1871 -5.55112e-17
216 1 1.77475 151.418 -5.55112e-17
217 1 39.9416 113.223 -5.55112e-17
218 2 13.6334 106.872 -5.55112e-17
219 1 15.0625 94.9751 -5.55112e-17
220 2 138.401 134.428 -5.55112e-17
221 1 50.0316 173.396 -5.55112e-17
222 1 142.586 20.7723 -5.55112e-17
223 1 180.883 135.821 -5.55112e-17
224 2 34.1733 58.6649 -5.55112e-17
225 1 69.0782 53.5497 -5.55112e-17
226 1 92.9778 123.314 -5.55112e-17
227 2 164.752 51.7777 -5.55112e-17
228 1 8.79102 47.5847 -5.55112e-17
229 1 208.448 185.394 -5.55112e-17
230 1 26.3317 113.37 -5.55112e-17
231 1 47.6383 180.277 -5.55112e-17
232 1 199.339 163.911 -5.55112e-17
233 1 170.08 71.1675 -5.55112e-17
234 1 115.65 134.965 -5.55112e-17
235 1 197.863 205.37 -5.55112e-17
236 1 90.2286 92.4325 -5.55112e-17
237 1 122.578 65.1773 -5.55112e-17
238 1 189.037 143.115 -5.55112e-17
239 2 19.8584 98.0622 -5.55112e-17
240 1 206.052 48.694 -5.55112e-17
241 2 127.901 209.928 -5.55112e-17
242 2 168.17 109.947 -5.55112e-17
243 2 43.2145 118.434 -5.55112e-17
244 1 193.414 4.39346 -5.55112e-17
245 1 20.2543 71.8594 -5.55112e-17
246 1 153.436 24.2016 -5.55112e-17
247 1 10.3745 106.641 -5.55112e-17
248 1 151.026 72.3934 -5.55112e-17
249 1 175.185 174.33 -5.55112e-17
250 2 37.4032 81.3997 -5.55112e-17
251 1 139.54 150.41 -5.55112e-17
252 1 57.4776 37.8343 -5.55112e-17
253 1 210.701 58.776 -5.55112e-17
254 2 141.415 41.3571 -5.55112e-17
255 1 5.76556 167.754 -5.55112e-17
256 1 78.5532 86.7139 -5.55112e-17
257 1 168.117 72.7076 -5.55112e-17
258 2 153.348 70.661 -5.55112e-17
259 1 0.699406 115.079 -5.55112e-17
260 1 100.215 104.72 -5.55112e-17
261 1 207.542 115.474 -5.55112e-17
262 1 153.967 15.783 -5.55112e-17
263 1 185.634 14.9206 -5.55112e-17
264 1 95.6915 134.012 -5.55112e-17
265 1 58.6897 205.64 -5.55112e-17
266 1 184.16 94.8242 -5.55112e-17
267 1 97.3303 113.521 -5.55112e-17
268 1 27.7699 16.562 -5.55112e-17
269 1 198.47 73.3711 -5.55112e-17
270 1 13.6754 120.232 -5.55112e-17
271 1 70.2007 29.577 -5.55112e-17
272 1 194.908 46.0368 -5.55112e-17
273 1 93.002 140.675 -5.55112e-17
274 2 120.607 4.72953 -5.55112e-17
275 1 66.6532 202.603 -5.55112e-17
276 2 1.88684 212.056 -5.55112e-17
277 2 49.7643 80.1943 -5.55112e-17
278 1 138.449 118.518 -5.55112e-17
279 2 125.095 161.376 -5.55112e-17
280 1 144.302 212.233 -5.55112e-17
281 1 24.0226 48.6013 -5.55112e-17
282 1 185.326 85.0206 -5.55112e-17
283 1 197.452 135.595 -5.55112e-17
284 1 198.287 30.9308 -5.55112e-17
285 1 17.0797 129.547 -5.55112e-17
286 2 34.5584 103.139 -5.55112e-17
287 1 130.829 122.526 -5.55112e-17
288 1 12.7278 170.738 -5.55112e-17
289 1 9.81582 185.902 -5.55112e-17
290 1 199.494 105.993 -5.55112e-17
291 1 58.1257 197.836 -5.55112e-17
292 2 10.288 80.5043 -5.55112e-17
293 2 69.1335 72.4132 -5.55112e-17
294 1 85.8225 29.0927 -5.55112e-17
295 1 4.61446 49.6613 -5.55112e-17
296 1 47.8472 116.474 -5.55112e-17
297 1 208.767 134.935 -5.55112e-17
298 1 17.8303 167.217 -5.55112e-17
299 1 208.951 4.38847 -5.55112e-17
300 2 3.47608 61.9111 -5.55112e-17
301 1 207.39 106.723 -5.55112e-17
302 1 171.102 169.851 -5.55112e-17
303 2 145.807 27.2956 -5.55112e-17
304 2 37.049 14.2219 -5.55112e-17
305 1 101.647 191.533 -5.55112e-17
306 1 181.444 88.647 -5.55112e-17
307 1 77.0012 135.577 -5.55112e-17
308 1 202.737 76.5496 -5.55112e-17
309 2 194.176 201.296 -5.55112e-17
310 1 117.64 192.485 -5.55112e-17
311 1 114.872 202.351 -5.55112e-17
312 1 204.835 106.32 -5.55112e-17
313 2 82.886 73.6557 -5.55112e-17
314 1 199.481 148.563 -5.55112e-17
315 1 153.511 42.4189 -5.55112e-17
316 1 92.8244 53.6307 -5.55112e-17
317 1 97.1943 216.069 -5.55112e-17
318 1 101.552 90.8182 -5.55112e-17
319 1 145.085 121.051 -5.55112e-17
320 1 160.677 162.001 -5.55112e-17
321 1 218.344 175.155 -5.55112e-17
322 1 56.0648 206.398 -5.55112e-17
323 1 67.8525 1.47174 -5.55112e-17
324 1 44.5478 120.868 -5.55112e-17
325 1 157.877 65.7753 -5.55112e-17
326 1 167.536 70.3303 -5.55112e-17
327 2 93.5883 19.2657 -5.55112e-17
328 1 69.6902 192.697 -5.55112e-17
329 2 129.629 28.7578 -5.55112e-17
330 1 94.0594 32.0053 -5.55112e-17
331 1 198.789 161.534 -5.55112e-17
332 2 82.2902 196.246 -5.55112e-17
333 1 141.659 218.783 -5.55112e-17
334 1 31.179 59.113 -5.55112e-17
335 1 62.0401 86.5875 -5.55112e-17
336 1 47.4152 149.635 -5.55112e-17
337 1 7.41492 89.388 -5.55112e-17
338 1 92.7185 46.3632 -5.55112e-17
339 1 136.089 199.473 -5.55112e-17
340 1 34.7931 93.8035 -5.55112e-17
341 1 164.583 87.0316 -5.55112e-17
342 1 216.689 24.5749 -5.55112e-17
343 1 139.332 51.3837 -5.55112e-17
344 1 151.332 137.232 -5.55112e-17
345 1 190.596 67.2895 -5.55112e-17
346 1 112.326 95.574 -5.55112e-17
347 1 189.708 0.399157 -5.55112e-17
348 1 42.0093 86.4531 -5.55112e-17
349 1 58.869 60.1876 -5.55112e-17
350 2 192.601 208.895 -5.55112e-17
351 1 147.59 35.577 -5.55112e-17
352 1 57.7871 12.9094 -5.55112e-17
353 1 175.82 116.105 -5.55112e-17
354 1 25.6618 15.6072 -5.55112e-17
355 1 156.486 183.314 -5.55112e-17
356 1 61.8068 152.214 -5.55112e-17
357 1 158.001 131.68 -5.55112e-17
358 1 19.5572 32.015 -5.55112e-17
359 1 144.98 20.0194 -5.55112e-17
360 1 214.275 188.733 -5.55112e-17
361 1 76.8263 17.2174 -5.55112e-17
362 1 90.1236 215.785 -5.55112e-17
363 1 165.094 59.3581 -5.55112e-17
364 2 95.9741 21.2394 -5.55112e-17
365 1 144.61 56.3125 -5.55112e-17
366 1 39.932 64.3224 -5.55112e-17
367 1 146.615 58.0726 -5.55112e-17
368 1 63.7078 128.026 -5.55112e-17
369 2 133.386 42.3711 -5.55112e-17
370 1 171.03 178.684 -5.55112e-17
371 1 113.296 7.10459 -5.55112e-17
372 2 73.4428 192.926 -5.55112e-17
373 2 108.094 137.51 -5.55112e-17
374 1 120.447 192.011 -5.55112e-17
375 1 216.116 213.684 -5.55112e-17
376 1 59.618 115.425 -5.55112e-17
377 1 171.51 162.272 -5.55112e-17
378 1 98.3108 88.3748 -5.55112e-17
379 1 201.347 73.8841 -5.55112e-17
380 1 81.8729 153.725 -5.55112e-17
381 1 92.4433 41.6084 -5.55112e-17
382 1 142.851 85.8029 -5.55112e-17
383 1 92.4355 74.3829 -5.55112e-17
384 1 131.738 97.412 -5.55112e-17
385 1 62.145 154.735 -5.55112e-17
386 2 41.555 42.7123 -5.55112e-17
387 1 197.199 171.519 -5.55112e-17
388 1 77.0848 66.1315 -5.55112e-17
389 1 182.003 0.606787 -5.55112e-17
390 2 162.406 204.061 -5.55112e-17
391 2 156.242 93.0975 -5.55112e-17
392 1 15.4729 159.076 -5.55112e-17
393 1 210.084 145.783 -5.55112e-17
394 1 15.2976 16.5674 -5.55112e-17
395 1 198.008 184.465 -5.55112e-17
396 1 25.9682 191.271 -5.55112e-17
397 1 99.3887 177.965 -5.55112e-17
398 1 210.013 115.318 -5.55112e-17
399 1 144.213 77.7199 -5.55112e-17
400 1 146.492 150.575 -5.55112e-17
401 1 108.173 159.228 -5.55112e-17
402 2 206.446 31.2698 -5.55112e-17
403 1 58.8267 156.492 -5.55112e-17
404 1 151.882 46.5185 -5.55112e-17
405 1 144.937 91.4898 -5.55112e-17
406 1 102.958 41.1883 -5.55112e-17
407 2 101.633 19.0062 -5.55112e-17
408 1 75.6318 104.048 -5.55112e-17
409 1 27.9959 28.1005 -5.55112e-17
410 1 110.381 176.64 -5.55112e-17
411 1 120.602 39.9325 -5.55112e-17
412 1 106.482 97.9774 -5.55112e-17
413 1 165.589 84.9376 -5.55112e-17
414 1 93.2591 58.1293 -5.55112e-17
415 1 217.834 45.978 -5.55112e-17
416 1 196.522 165.679 -5.55112e-17
417 1 203.587 179.896 -5.55112e-17
418 2 46.2655 146.815 -5.55112e-17
419 1 19.227 115.886 -5.55112e-17
420 2 77.3997 58.0241 -5.55112e-17
421 1 218.255 117.036 -5.55112e-17
422 1 178.298 20.2984 -5.55112e-17
423 2 90.565 83.16 -5.55112e-17
424 1 71.5826 36.5656 -5.55112e-17
425 1 163.678 89.8002 -5.55112e-17
426 1 158.637 123.854 -5.55112e-17
427 1 193.284 128.159 -5.55112e-17
428 1 99.0211 95.34 -5.55112e-17
429 1 211.351 86.1626 -5.55112e-17
430 1 44.3161 125.935 -5.55112e-17
431 1 113.793 101.689 -5.55112e-17
432 1 218.641 185.894 -5.55112e-17
433 1 52.4533 65.061 -5.55112e-17
434 1 209.772 106.054 -5.55112e-17
435 1 177.949 105.161 -5.55112e-17
436 1 163.284 190.882 -5.55112e-17
437 1 177.824 174.75 -5.55112e-17
438 2 201.981 91.2289 -5.55112e-17
439 1 139.16 82.9886 -5.55112e-17
440 1 76.9318 177.355 -5.55112e-17
441 1 29.2181 20.9239 -5.55112e-17
442 1 189.279 116.357 -5.55112e-17
443 1 6.43796 74.2427 -5.55112e-17
444 1 50.6852 187.849 -5.55112e-17
445 1 178.259 181.901 -5.55112e-17
446 1 204.503 0.916506 -5.55112e-17
447 1 77.83 10.1084 -5.55112e-17
448 1 95.7095 212.67 -5.55112e-17
449 1 11.7513 43.3641 -5.55112e-17
450 1 123.537 80.0065 -5.55112e-17
451 1 16.1905 191.678 -5.55112e-17
452 1 88.4082 8.52087 -5.55112e-17
453 1 184.114 92.1882 -5.55112e-17
454 1 101.143 159.921 -5.55112e-17
455 1 100.162 202.048 -5.55112e-17
456 1 203.829 113.276 -5.55112e-17
457 1 32.8862 120.037 -5.55112e-17
458 1 167.061 64.616 -5.55112e-17
459 1 25.4474 52.7996 -5.55112e-17
460 1 131.726 166.163 -5.55112e-17
461 1 9.81314 192.814 -5.55112e-17
462 1 19.7221 22.2846 -5.55112e-17
463 1 53.9067 55.0607 -5.55112e-17
464 1 32.9008 78.9006 -5.55112e-17
465 1 105.933 22.2888 -5.55112e-17
466 1 92.4964 130.309 -5.55112e-17
467 1 181.211 122.372 -5.55112e-17
468 1 38.8681 214.458 -5.55112e-17
469 1 80.2205 208.783 -5.55112e-17
470 1 119.609 167.114 -5.55112e-17
471 1 81.6887 165.828 -5.55112e-17
472 1 60.2155 199.359 -5.55112e-17
473 1 84.7496 10.7799 -5.55112e-17
474 1 178.086 167.36 -5.55112e-17
475 1 127.666 193.718 -5.55112e-17
476 2 167.723 62.0822 -5.55112e-17
477 1 102.23 131.548 -5.55112e-17
478 1 155.463 171.003 -5.55112e-17
479 1 107.189 72.4002 -5.55112e-17
480 1 83.5621 193.261 -5.55112e-17
481 1 69.58 51.3313 -5.55112e-17
482 1 129.892 99.6984 -5.55112e-17
483 1 36.5692 50.7941 -5.55112e-17
484 2 44.3378 136.535 -5.55112e-17
485 1 67.4787 148.424 -5.55112e-17
486 1 114.048 69.6632 -5.55112e-17
487 1 129.43 146.396 -5.55112e-17
488 1 155.985 40.7904 -5.55112e-17
489 1 1.56809 112.884 -5.55112e-17
490 1 1.07663 215.773 -5.55112e-17
491 1 11.2866 53.3836 -5.55112e-17
492 1 212.37 72.4645 -5.55112e-17
493 1 30.2643 191.321 -5.55112e-17
494 1 131.005 144.051 -5.55112e-17
495 1 147.448 91.3933 -5.55112e-17
496 2 197.816 108.205 -5.55112e-17
497 1 193.441 117.24 -5.55112e-17
498 1 117.663 26.3711 -5.55112e-17
499 2 11.4353 96.1025 -5.55112e-17
500 1 30.3356 177.903 -5.55112e-17
501 2 67.4134 30.2761 -5.55112e-17
502 2 213.828 194.312 -5.55112e-17
503 1 170.604 73.894 -5.55112e-17
504 1 162.876 85.0736 -5.55112e-17
505 1 48.0708 152.186 -5.55112e-17
506 1 54.5687 64.2693 -5.55112e-17
507 1 84.3412 144.52 -5.55112e-17
508 1 87.8312 73.8384 -5.55112e-17
509 2 160.995 90.3594 -5.55112e-17
510 2 17.6793 103.759 -5.55112e-17
511 1 23.2665 176.428 -5.55112e-17
512 2 211.672 34.8202 -5.55112e-17
513 1 53.7468 107.017 -5.55112e-17
514 1 53.9626 154.348 -5.55112e-17
515 1 183.751 56.9776 -5.55112e-17
516 1 150.655 0.515565 -5.55112e-17
517 1 165.071 209.712 -5.55112e-17
518 2 84.154 59.2039 -5.55112e-17
519 1 142.035 10.7659 -5.55112e-17
520 2 182.519 108.179 -5.55112e-17
521 1 216.232 67.467 -5.55112e-17
522 1 151.524 22.411 -5.55112e-17
523 1 128.942 8.6902 -5.55112e-17
524 1 7.81612 79.1179 -5.55112e-17
525 1 133.22 170.183 -5.55112e-17
526 1 17.5219 150.778 -5.55112e-17
527 1 91.325 145.338 -5.55112e-17
528 1 85.1774 186.708 -5.55112e-17
529 1 218.152 109.387 -5.55112e-17
530 1 13.3591 154.503 -5.55112e-17
531 1 102.5 162.347 -5.55112e-17
532 1 161.739 148.552 -5.55112e-17
533 1 52.4616 161.176 -5.55112e-17
534 1 40.0056 33.6759 -5.55112e-17
535 1 148.573 208.168 -5.55112e-17
536 1 143.849 135.193 -5.55112e-17
537 1 22.4516 56.2998 -5.55112e-17
538 1 59.3627 39.4584 -5.55112e-17
539 1 13.647 152.245 -5.55112e-17
540 1 102.926 104.22 -5.55112e-17
541 1 176.25 121.418 -5.55112e-17
542 1 89.7262 139.073 -5.55112e-17
543 1 49.3609 131.302 -5.55112e-17
544 1 112.506 49.9426 -5.55112e-17
545 1 178.515 32.5064 -5.55112e-17
546 1 50.7989 196.993 -5.55112e-17
547 1 186.223 19.7713 -5.55112e-17
548 1 97.9726 35.4195 -5.55112e-17
549 1 166.391 196.896 -5.55112e-17
550 2 19.481 44.9278 -5.55112e-17
551 2 112.184 111.387 -5.55112e-17
552 2 212.944 141.461 -5.55112e-17
553 1 211.286 179.396 -5.55112e-17
554 1 157.991 118.092 -5.55112e-17
555 2 32.5597 205.781 -5.55112e-17
556 1 76.0306 191.313 -5.55112e-17
557 1 181.919 6.38074 -5.55112e-17
558 1 137.089 182.91 -5.55112e-17
559 1 80.396 158.171 -5.55112e-17
560 1 172.236 41.9024 -5.55112e-17
561 1 105.158 26.7075 -5.55112e-17
562 1 144.077 217.87 -5.55112e-17
563 2 32.2257 26.029 -5.55112e-17
564 1 163.096 155.233 -5.55112e-17
565 1 118.334 117.31 -5.55112e-17
566 1 82.5941 201.2 -5.55112e-17
567 1 166.305 166.405 -5.55112e-17
568 1 78.4754 198.928 -5.55112e-17
569 1 29.7669 161.563 -5.55112e-17
570 1 215.025 122.126 -5.55112e-17
571 1 188.555 162.61 -5.55112e-17
572 1 141.951 127.138 -5.55112e-17
573 1 64.9309 154.901 -5.55112e-17
574 1 23.2944 36.654 -5.55112e-17
575 1 110.656 196.135 -5.55112e-17
576 1 109.56 201.655 -5.55112e-17
577 1 198.257 82.9216 -5.55112e-17
578 1 198.519 180.17 -5.55112e-17
579 1 179.061 43.0492 -5.55112e-17
580 1 71.9683 113.102 -5.55112e-17
581 1 163.3 10.0315 -5.55112e-17
582 1 177.342 22.8711 -5.55112e-17
583 1 121.285 127.118 -5.55112e-17
584 2 78.8388 205.06 -5.55112e-17
585 1 160.741 40.7487 -5.55112e-17
586 1 201.236 16.5099 -5.55112e-17
587 1 208.049 153.677 -5.55112e-17
588 1 153.535 165.767 -5.55112e-17
589 1 160.067 146.442 -5.55112e-17
590 1 174.306 48.0799 -5.55112e-17
591 1 136.579 132.044 -5.55112e-17
592 1 50.8575 27.0589 -5.55112e-17
593 1 130.689 125.215 -5.55112e-17
594 1 151.073 110.149 -5.55112e-17
595 1 152.603 218.076 -5.55112e-17
596 1 127.26 204.644 -5.55112e-17
597 2 58.1484 24.3933 -5.55112e-17
598 1 177.919 91.4525 -5.55112e-17
599 1 43.2475 44.7326 -5.55112e-17
600 1 172.368 148.735 -5.55112e-17
601 1 80.4393 194.161 -5.55112e-17
602 1 180.227 172.771 -5.55112e-17
603 1 155.869 103.161 -5.55112e-17
604 1 179.918 100.363 -5.55112e-17
605 2 89.6981 47.2439 -5.55112e-17
606 1 181.387 158.401 -5.55112e-17
607 2 194.405 23.5788 -5.55112e-17
608 1 2.6987 93.5121 -5.55112e-17
609 1 25.4075 140.019 -5.55112e-17
610 1 64.1612 54.56 -5.55112e-17
611 1 151.07 182.751 -5.55112e-17
612 1 217.738 69.8756 -5.55112e-17
613 1 162.606 101.117 -5.55112e-17
614 2 9.65517 86.4251 -5.55112e-17
615 1 151.79 19.8198 -5.55112e-17
616 1 155.546 173.28 -5.55112e-17
617 1 209.054 36.2208 -5.55112e-17
618 1 158.195 181.678 -5.55112e-17
619 1 165.804 91.6018 -5.55112e-17
620 1 216.02 98.8715 -5.55112e-17
621 1 191.746 41.7102 -5.55112e-17
622 1 67.4815 179.54 -5.55112e-17
623 1 9.2726 150.67 -5.55112e-17
624 1 199.989 40.2475 -5.55112e-17
625 1 58.4793 135.039 -5.55112e-17
626 1 209.013 1.93186 -5.55112e-17
627 1 199.468 3.26294 -5.55112e-17
628 1 26.3607 64.5773 -5.55112e-17
629 1 143.651 15.7328 -5.55112e-17
630 2 65.7686 107.736 -5.55112e-17
631 1 2.80029 197.418 -5.55112e-17
632 1 111.061 116.643 -5.55112e-17
633 1 167.466 44.6783 -5.55112e-17
634 1 125.492 69.9067 -5.55112e-17
635 1 129.659 15.4482 -5.55112e-17
636 1 64.6701 191.91 -5.55112e-17
637 1 7.51108 45.2072 -5.55112e-17
638 1 184.388 148.036 -5.55112e-17
639 2 187.486 67.0942 -5.55112e-17
640 1 209.984 170.178 -5.55112e-17
641 1 153.235 29.3537 -5.55112e-17
642 1 65.3752 56.5914 -5.55112e-17
643 2 87.8296 187.442 -5.55112e-17
644 1 198.374 103.673 -5.55112e-17
645 1 148.448 143.582 -5.55112e-17
646 2 101.88 70.9917 -5.55112e-17
647 1 5.70646 207.883 -5.55112e-17
648 1 186.144 127.219 -5.55112e-17
649 2 200.966 202.985 -5.55112e-17
650 1 122.228 62.6122 -5.55112e-17
651 1 113.73 168.831 -5.55112e-17
652 1 10.8237 120.724 -5.55112e-17
653 1 7.37255 93.7906 -5.55112e-17
654 1 78.2915 112.099 -5.55112e-17
655 2 78.0186 140.697 -5.55112e-17
656 1 55.7931 3.2342 -5.55112e-17
657 2 196.374 3.32857 -5.55112e-17
658 1 22.703 0.293762 -5.55112e-17
659 2 212.218 104.326 -5.55112e-17
660 1 170.833 126.994 -5.55112e-17
661 1 99.4812 24.5099 -5.55112e-17
662 1 133.328 58.4347 -5.55112e-17
663 1 177.836 3.33006 -5.55112e-17
664 1 41.1635 95.4886 -5.55112e-17
665 1 116.896 176.493 -5.55112e-17
666 2 194.34 158.375 -5.55112e-17
667 1 12.6347 147.559 -5.55112e-17
668 2 36.5201 34.0981 -5.55112e-17
669 1 64.1065 202.98 -5.55112e-17
670 1 138.512 145.075 -5.55112e-17
671 2 143.181 197.533 -5.55112e-17
672 1 198.85 90.712 -5.55112e-17
673 1 107.123 68.034 -5.55112e-17
674 1 57.9453 48.0824 -5.55112e-17
675 1 68.2037 92.13 -5.55112e-17
676 1 32.8972 167.536 -5.55112e-17
677 1 80.492 214.084 -5.55112e-17
678 1 54.4111 193.72 -5.55112e-17
679 2 195.379 77.9221 -5.55112e-17
680 1 93.8858 191.685 -5.55112e-17
681 2 168.078 105.75 -5.55112e-17
682 1 9.27254 118.711 -5.55112e-17
683 1 97.1313 69.0166 -5.55112e-17
684 1 99.4106 153.482 -5.55112e-17
685 1 14.1641 12.569 -5.55112e-17
686 1 35.1344 24.1774 -5.55112e-17
687 1 196.358 87.224 -5.55112e-17
688 1 216.718 157.752 -5.55112e-17
689 2 67.8261 155.363 -5.55112e-17
690 1 52.4939 100.093 -5.55112e-17
691 1 104.338 43.3795 -5.55112e-17
692 1 88.2808 106.169 -5.55112e-17
693 1 15.2671 127.32 -5.55112e-17
694 1 172.725 174.252 -5.55112e-17
695 1 160.744 196.708 -5.55112e-17
696 1 95.0352 131.127 -5.55112e-17
697 1 29.6855 74.9145 -5.55112e-17
698 1 120.896 180.992 -5.55112e-17
699 1 158.526 129.391 -5.55112e-17
700 1 185.164 109.958 -5.55112e-17
701 1 175.502 91.3788 -5.55112e-17
702 1 39.5884 6.06377 -5.55112e-17
703 2 34.109 124.867 -5.55112e-17
704 1 3.4855 214.71 -5.55112e-17
705 2 137.695 23.5529 -5.55112e-17
706 1 1.04139 178.793 -5.55112e-17
707 1 129.782 87.1774 -5.55112e-17
708 1 87.3122 129.57 -5.55112e-17
709 1 142.821 176.994 -5.55112e-17
710 1 15.1789 62.2817 -5.55112e-17
711 1 181.198 125.023 -5.55112e-17
712 1 202.262 155.049 -5.55112e-17
713 1 26.3476 162.944 -5.55112e-17
714 1 130.324 49.2637 -5.55112e-17
715 1 146.822 12.386 -5.55112e-17
716 1 123.97 117.6 -5.55112e-17
717 1 165.372 97.9599 -5.55112e-17
718 1 150.894 90.2034 -5.55112e-17
719 2 54.9153 17.5641 -5.55112e-17
720 1 103.793 116.69 -5.55112e-17
721 1 197.028 163.164 -5.55112e-17
722 1 35.2006 56.0522 -5.55112e-17
723 2 44.6033 199.802 -5.55112e-17
724 1 23.8405 158.163 -5.55112e-17
725 1 201.242 208.568 -5.55112e-17
726 1 36.1408 196.801 -5.55112e-17
727 1 118.662 47.6071 -5.55112e-17
728 2 213.701 100.529 -5.55112e-17
729 1 174.593 201.199 -5.55112e-17
730 1 48.9924 211.393 -5.55112e-17
731 1 50.6133 74.452 -5.55112e-17
732 1 30.4434 23.1876 -5.55112e-17
733 1 12.8395 62.993 -5.55112e-17
734 1 152.193 187.722 -5.55112e-17
735 1 215.262 89.249 -5.55112e-17
736 2 215.285 45.0312 -5.55112e-17
737 1 146.745 82.0762 -5.55112e-17
738 1 121.746 32.7659 -5.55112e-17
739 1 144.055 59.1888 -5.55112e-17
740 1 13.7942 214.348 -5.55112e-17
741 2 197.975 15.5272 -5.55112e-17
742 1 195.777 50.5191 -5.55112e-17
743 1 184.645 215.781 -5.55112e-17
744 2 25.807 31.8175 -5.55112e-17
745 1 9.92529 181.157 -5.55112e-17
746 1 3.36494 217.274 -5.55112e-17
747 2 187.264 99.9669 -5.55112e-17
748 1 82.9497 188.143 -5.55112e-17
749 1 77.7183 168.397 -5.55112e-17
750 1 116.372 97.3464 -5.55112e-17
751 1 95.2867 158.743 -5.55112e-17
752 1 196.376 195.843 -5.55112e-17
753 1 180.327 110.312 -5.55112e-17
754 1 104.449 24.1651 -5.55112e-17
755 1 11.1703 125.122 -5.55112e-17
756 2 108.387 4.49768 -5.55112e-17
757 1 146.042 89.0448 -5.55112e-17
758 1 105.278 203.119 -5.55112e-17
759 1 138.483 45.3297 -5.55112e-17
760 1 110.307 54.7 -5.55112e-17
761 1 32.038 40.0365 -5.55112e-17
762 1 112.655 72.0015 -5.55112e-17
763 1 156.833 33.2323 -5.55112e-17
764 2 124.792 155.958 -5.55112e-17
765 1 175.299 82.7284 -5.55112e-17
766 1 162.877 98.9261 -5.55112e-17
767 1 180.706 33.6764 -5.55112e-17
768 1 20.9018 100.286 -5.55112e-17
769 1 8.75954 187.896 -5.55112e-17
770 2 71.7666 151.487 -5.55112e-17
771 1 43.6717 189.703 -5.55112e-17
772 1 83.604 206.313 -5.55112e-17
773 1 43.2688 37.5508 -5.55112e-17
774 1 2.0446 117.326 -5.55112e-17
775 1 154.438 151.436 -5.55112e-17
776 1 170.123 86.2454 -5.55112e-17
777 1 25.0358 214.655 -5.55112e-17
778 1 205.655 139.125 -5.55112e-17
779 1 181.489 177.662 -5.55112e-17
780 1 14.0431 30.3791 -5.55112e-17
781 1 202.411 39.785 -5.55112e-17
782 1 180.858 205.928 -5.55112e-17
783 1 81.9197 5.87599 -5.55112e-17
784 2 97.3368 196.073 -5.55112e-17
785 1 127.237 86.9404 -5.55112e-17
786 1 91.7241 3.72917 -5.55112e-17
787 1 137.408 85.1223 -5.55112e-17
788 1 187.598 214.325 -5.55112e-17
789 2 51.2348 53.9987 -5.55112e-17
790 1 173.868 163.043 -5.55112e-17
791 2 201.087 184.923 -5.55112e-17
792 2 112.244 84.1724 -5.55112e-17
793 2 218.168 17.3608 -5.55112e-17
794 1 16.347 60.396 -5.55112e-17
795 1 162.328 54.5217 -5.55112e-17
796 1 142.045 174.659 -5.55112e-17
797 1 117.104 18.2619 -5.55112e-17
798 2 95.129 118.424 -5.55112e-17
799 2 2.93505 39.3025 -5.55112e-17
800 2 169.173 56.7887 -5.55112e-17
801 1 197.126 23.3336 -5.55112e-17
802 1 18.6342 100.734 -5.55112e-17
803 1 58.0267 203.041 -5.55112e-17
804 2 114.428 44.3459 -5.55112e-17
805 1 18.8269 36.4366 -5.55112e-17
806 1 36.7273 126.122 -5.55112e-17
807 2 36.21 61.3016 -5.55112e-17
808 1 122.83 69.8694 -5.55112e-17
809 2 42.205 111.09 -5.55112e-17
810 1 177.054 217.442 -5.55112e-17
811 1 109.122 10.6964 -5.55112e-17
812 1 19.2231 13.7898 -5.55112e-17
813 2 21.4785 59.3038 -5.55112e-17
814 1 179.574 79.0464 -5.55112e-17
815 1 33.3598 61.5431 -5.55112e-17
816 1 63.9391 65.1065 -5.55112e-17
817 1 102.773 65.2321 -5.55112e-17
818 1 124.111 53.7521 -5.55112e-17
819 1 74.6702 150.205 -5.55112e-17
820 1 194.253 125.145 -5.55112e-17
821 1 56.4314 142.992 -5.55112e-17
822 2 69.2038 107.724 -5.55112e-17
823 2 12.9102 174.348 -5.55112e-17
824 1 89.3273 78.3381 -5.55112e-17
825 1 139.843 152.987 -5.55112e-17
826 1 130.555 184.885 -5.55112e-17
827 1 41.6582 135.472 -5.55112e-17
828 1 155.739 43.4194 -5.55112e-17
829 1 10.9996 145.703 -5.55112e-17
830 1 64.313 34.2431 -5.55112e-17
831 1 159.043 82.0166 -5.55112e-17
832 1 138.632 177.828 -5.55112e-17
833 1 117.704 21.1155 -5.55112e-17
834 1 114.785 218.344 -5.55112e-17
835 1 125.747 58.8424 -5.55112e-17
836 1 176.15 136.858 -5.55112e-17
837 1 67.9235 137.307 -5.55112e-17
838 1 64.7632 117.142 -5.55112e-17
839 2 79.7981 201.689 -5.55112e-17
840 1 27.3827 110.947 -5.55112e-17
841 2 43.1387 27.8154 -5.55112e-17
842 1 44.881 185.711 -5.55112e-17
843 2 31.9078 31.7553 -5.55112e-17
844 1 183.402 213.184 -5.55112e-17
845 1 74.7229 18.0608 -5.55112e-17
846 1 181.6 38.946 -5.55112e-17
847 1 52.109 40.2805 -5.55112e-17
848 1 120.957 7.65116 -5.55112e-17
849 1 180.269 175.214 -5.55112e-17
850 1 177.79 150.2 -5.55112e-17
851 1 32.135 160.854 -5.55112e-17
852 1 57.3628 122.991 -5.55112e-17
853 1 120.642 117.058 -5.55112e-17
854 1 207.494 213.758 -5.55112e-17
855 1 153.007 88.8394 -5.55112e-17
856 1 65.7217 187.136 -5.55112e-17
857 1 69.2084 190.207 -5.55112e-17