ITEM: TIMESTEP
0
ITEM: NUMBER OF ATOMS
7200
ITEM: BOX BOUNDS xy xz yz pp pp pp
0.0000000000000000e+00 2.1900000000000000e+02 0.0000000000000000e+00
0.0000000000000000e+00 2.1900000000000000e+02 0.0000000000000000e+00
-3.6499999999999999e-01 3.6499999999999999e-01 0.0000000000000000e+00
ITEM: ATOMS id type x y z
1 1 4.20618 51.2008 -5.55112e-17
2 1 81.7895 76.3973 -5.55112e-17
3 1 210.813 98.484 -5.55112e-17
4 1 14.5277 48.707 -5.55112e-17
5 1 68.2654 127.488 -5.55112e-17
6 1 77.4038 207.637 -5.55112e-17
7 1 171.162 77.7465 -5.55112e-17
8 2 27.6824 200.85 -5.55112e-17
9 1 94.7005 152.738 -5.55112e-17
10 2 197.919 175.353 -5.55112e-17
11 1 139.227 107.761 -5.55112e-17
12 1 90.4426 91.015 -5.55112e-17
13 2 24.3727 159.058 -5.55112e-17
14 1 108.264 160.715 -5.55112e-17
15 1 110.934 34.816 -5.55112e-17
16 2 161.742 196.225 -5.55112e-17
17 1 106.906 125.369 -5.55112e-17
18 2 17.4007 136.113 -5.55112e-17
19 1 217.896 154.779 -5.55112e-17
20 1 75.1698 144.074 -5.55112e-17
21 1 127.696 124.275 -5.55112e-17
22 2 149.796 184.084 -5.55112e-17
23 2 112.179 139.116 -5.55112e-17
24 1 39.3819 139.967 -5.55112e-17
25 1 44.002 45.4367 -5.55112e-17
26 2 98.3626 112.608 -5.55112e-17
27 1 147.382 142.884 -5.55112e-17
28 2 167.956 106.862 -5.55112e-17
29 1 92.482 140.008 -5.55112e-17
30 1 168.965 17.8174 -5.55112e-17
31 1 45.6642 118.647 -5.55112e-17
32 1 163.691 76.629 -5.55112e-17
33 1 57.9553 38.0705 -5.55112e-17
34 1 157.091 27.3639 -5.55112e-17
35 1 5.13029 89.3316 -5.55112e-17
36 1 56.55 10.4866 -5.55112e-17
37 2 35.2786 154.048 -5.55112e-17
38 1 36.4115 131.921 -5.55112e-17
39 1 139.385 212.43 -5.55112e-17
40 1 31.7536 190.502 -5.55112e-17
41 1 128.729 116.432 -5.55112e-17
42 1 112.828 115.949 -5.55112e-17
43 1 56.9197 29.32 -5.55112e-17
44 1 21.1784 25.7276 -5.55112e-17
45 1 69.5149 44.2051 -5.55112e-17
46 1 62.3172 81.2586 -5.55112e-17
47 1 15.0203 167.523 -5.55112e-17
48 2 27.871 146.535 -5.55112e-17
49 1 13.5485 183.59 -5.55112e-17
50 1 89.0456 93.003 -5.55112e-17
51 1 35.5788 181.211 -5.55112e-17
52 1 203.24 191.015 -5.55112e-17
53 1 67.7607 190.144 -5.55112e-17
54 1 186.748 218.409 -5.55112e-17
55 1 87.1138 181.655 -5.55112e-17
56 1 71.3655 163.351 -5.55112e-17
57 2 197.023 101.583 -5.55112e-17
58 1 101.278 94.266 -5.55112e-17
59 1 96.9921 94.9726 -5.55112e-17
60 2 68.2863 130.147 -5.55112e-17
61 2 61.9363 0.270666 -5.55112e-17
62 1 145.305 125.992 -5.55112e-17
63 1 116.842 12.8373 -5.55112e-17
64 1 35.781 10.3664 -5.55112e-17
65 1 202.659 114.969 -5.55112e-17
66 1 99.9192 37.8065 -5.55112e-17
67 1 50.0656 85.9887 -5.55112e-17
68 1 215.659 64.7529 -5.55112e-17
69 1 151.965 30.6345 -5.55112e-17
70 1 9.47607 39.4462 -5.55112e-17
71 1 177.68 189.473 -5.55112e-17
72 1 81.9184 164.568 -5.55112e-17
73 1 83.4016 51.7575 -5.55112e-17
74 1 23.0178 6.91281 -5.55112e-17
75 2 214.496 36.4131 -5.55112e-17
76 1 121.852 32.1596 -5.55112e-17
77 1 183.717 201.613 -5.55112e-17
78 1 124.294 88.28 -5.55112e-17
79 2 40.1508 214.282 -5.55112e-17
80 1 216.925 6.41681 -5.55112e-17
81 1 48.3292 200.038 -5.55112e-17
82 1 6.60473 17.6209 -5.55112e-17
83 2 103.961 111.612 -5.55112e-17
84 1 138.754 81.6118 -5.55112e-17
85 1 76.8804 6.63206 -5.55112e-17
86 1 46.4407 162.498 -5.55112e-17
87 1 165.829 217.979 -5.55112e-17
88 1 186.338 121.491 -5.55112e-17
89 2 63.4854 49.38 -5.55112e-17
90 2 163.712 123.463 -5.55112e-17
91 1 58.4441 148.127 -5.55112e-17
92 2 93.5426 174.344 -5.55112e-17
93 1 42.0342 217.204 -5.55112e-17
94 2 12.7004 99.7749 -5.55112e-17
95 1 138.194 39.7372 -5.55112e-17
96 1 66.9326 162.422 -5.55112e-17
97 1 187.522 142.449 -5.55112e-17
98 1 136.595 67.4832 -5.55112e-17
99 1 70.5905 5.84121 -5.55112e-17
100 1 96.5764 71.7758 -5.55112e-17
101 1 132.248 205.673 -5.55112e-17
102 1 3.14459 116.917 -5.55112e-17
103 1 145.812 46.658 -5.55112e-17
104 1 21.2593 128.347 -5.55112e-17
105 1 118.293 74.7558 -5.55112e-17
106 1 216.159 122.417 -5.55112e-17
107 2 168.836 151.398 -5.55112e-17
108 1 172.678 159.596 -5.55112e-17
109 1 84.0031 132.496 -5.55112e-17
110 1 30.3123 112.104 -5.55112e-17
111 1 87.7912 56.9511 -5.55112e-17
112 1 127.142 96.2168 -5.55112e-17
113 1 7.99204 62.3119 -5.55112e-17
114 1 201.609 5.93098 -5.55112e-17
115 1 213.169 115.916 -5.55112e-17
116 2 51.3779 186.452 -5.55112e-17
117 1 192.475 72.1831 -5.55112e-17
118 1 157.11 177.948 -5.55112e-17
119 2 50.7774 11.7218 -5.55112e-17
120 1 120.261 165.7 -5.55112e-17
121 1 189.442 59.7746 -5.55112e-17
122 1 130.157 123.57 -5.55112e-17
123 1 47.5464 144.483 -5.55112e-17
124 1 191.446 92.56 -5.55112e-17
125 1 20.885 94.7743 -5.55112e-17
126 1 94.5888 67.4307 -5.55112e-17
127 1 162.103 15.1781 -5.55112e-17
128 1 51.2091 65.0076 -5.55112e-17
129 1 37.9025 212.445 -5.55112e-17
130 1 67.7361 124.764 -5.55112e-17
131 1 90.6685 47.6011 -5.55112e-17
132 2 2.6581 177.325 -5.55112e-17
133 1 11.313 150.178 -5.55112e-17
134 1 56.5611 91.3389 -5.55112e-17
135 1 118.247 167.123 -5.55112e-17
136 1 193.048 62.7279 -5.55112e-17
137 1 175.818 20.767 -5.55112e-17
138 1 67.0664 42.6462 -5.55112e-17
139 1 0.358168 71.1592 -5.55112e-17
140 2 7.77384 74.8999 -5.55112e-17
141 1 78.3513 176.046 -5.55112e-17
142 2 56.2479 113.73 -5.55112e-17
143 1 93.2094 63.4977 -5.55112e-17
144 2 52.2501 212.095 -5.55112e-17
145 1 74.7855 105.078 -5.55112e-17
146 1 170.637 201.938 -5.55112e-17
147 1 58.7151 185.692 -5.55112e-17
148 1 212.575 186.466 -5.55112e-17
149 1 71.9238 40.8959 -5.55112e-17
150 1 130.873 108.855 -5.55112e-17
151 1 211.939 140.757 -5.55112e-17
152 1 149.592 116.457 -5.55112e-17
153 2 24.6137 77.3885 -5.55112e-17
154 1 47.0027 132.79 -5.55112e-17
155 1 20.6776 80.2512 -5.55112e-17
156 2 55.161 138.903 -5.55112e-17
157 1 173.144 80.4186 -5.55112e-17
158 1 184.367 102.031 -5.55112e-17
159 1 141.208 61.8571 -5.55112e-17
160 1 184.475 84.5997 -5.55112e-17
161 1 56.4986 106.331 -5.55112e-17
162 1 69.6775 176.493 -5.55112e-17
163 1 100.761 170.15 -5.55112e-17
164 1 51.7003 126.311 -5.55112e-17
165 1 84.9251 164.819 -5.55112e-17
166 2 84.7121 141.516 -5.55112e-17
167 1 118.321 180.191 -5.55112e-17
168 1 156.238 117.527 -5.55112e-17
169 1 64.9657 46.7233 -5.55112e-17
170 1 195.574 62.2192 -5.55112e-17
171 1 29.5302 216.829 -5.55112e-17
172 1 20.7254 140.287 -5.55112e-17
173 1 42.3986 73.2403 -5.55112e-17
174 1 180.036 196.164 -5.55112e-17
175 2 1.79585 147.994 -5.55112e-17
176 1 132.062 138.719 -5.55112e-17
177 2 149.859 3.91339 -5.55112e-17
178 1 152.956 38.7821 -5.55112e-17
179 1 206.599 139.973 -5.55112e-17
180 1 136.736 139.436 -5.55112e-17
181 1 218.928 33.0155 -5.55112e-17
182 2 31.8221 204.556 -5.55112e-17
183 1 46.7282 75.3946 -5.55112e-17
184 1 183.867 91.9105 -5.55112e-17
185 2 17.42 39.5923 -5.55112e-17
186 2 137.676 134.537 -5.55112e-17
187 1 28.7017 35.1107 -5.55112e-17
188 1 60.5909 149.794 -5.55112e-17
189 1 182.296 194.796 -5.55112e-17
190 2 93.852 17.0615 -5.55112e-17
191 1 36.9594 85.3434 -5.55112e-17
192 2 67.3573 1.82919 -5.55112e-17
193 2 203.725 23.9531 -5.55112e-17
194 1 121.249 10.5872 -5.55112e-17
195 1 155.251 170.989 -5.55112e-17
196 1 189.335 57.4414 -5.55112e-17
197 1 168.265 185.732 -5.55112e-17
198 2 199.816 186.032 -5.55112e-17
199 1 3.6486 129.402 -5.55112e-17
200 1 25.0343 74.4928 -5.55112e-17
201 2 157.74 7.49056 -5.55112e-17
202 1 97.5192 177.799 -5.55112e-17
203 1 74.6462 91.9572 -5.55112e-17
204 1 124.301 156.902 -5.55112e-17
205 2 120.893 46.485 -5.55112e-17
206 1 182.288 3.19927 -5.55112e-17
207 1 140.313 129.769 -5.55112e-17
208 1 61.5554 97.8551 -5.55112e-17
209 1 24.9907 81.0303 -5.55112e-17
210 1 67.0855 169.69 -5.55112e-17
211 2 37.9648 66.5538 -5.55112e-17
212 1 122.283 147.655 -5.55112e-17
213 1 23.1924 33.649 -5.55112e-17
214 1 78.6524 165.002 -5.55112e-17
215 1 180.68 174.591 -5.55112e-17
216 1 9.49762 161.558 -5.55112e-17
217 1 13.6349 79.1854 -5.55112e-17
218 2 85.8517 214.854 -5.55112e-17
219 1 83.7824 210.136 -5.55112e-17
220 2 54.8293 190.647 -5.55112e-17
221 1 87.202 85.2193 -5.55112e-17
222 1 53.3591 31.6636 -5.55112e-17
223 1 57.9966 116.226 -5.55112e-17
224 2 200.999 196.784 -5.55112e-17
225 1 50.6534 123.984 -5.55112e-17
226 1 87.1765 54.7671 -5.55112e-17
227 2 125.094 165.144 -5.55112e-17
228 1 165.713 39.8662 -5.55112e-17
229 1 171.72 150.075 -5.55112e-17
230 1 208.248 66.0529 -5.55112e-17
231 1 133.291 156.74 -5.55112e-17
232 1 81.2241 131.557 -5.55112e-17
233 1 17.9456 45.0133 -5.55112e-17
234 1 202.337 60.6605 -5.55112e-17
235 1 117.058 22.2175 -5.55112e-17
236 1 179.723 3.00614 -5.55112e-17
237 1 6.13351 202.922 -5.55112e-17
238 1 130.303 27.1134 -5.55112e-17
239 2 54.4818 120.186 -5.55112e-17
240 1 119.203 99.9553 -5.55112e-17
241 2 196.68 59.0935 -5.55112e-17
242 2 139.786 209.385 -5.55112e-17
243 2 53.9639 76.2106 -5.55112e-17
244 1 98.7382 28.7287 -5.55112e-17
245 1 7.44917 90.7998 -5.55112e-17
246 1 108.54 80.3808 -5.55112e-17
247 1 148.548 70.9566 -5.55112e-17
248 1 166.902 129.923 -5.55112e-17
249 1 38.6067 13.8751 -5.55112e-17
250 2 118.919 150.806 -5.55112e-17
251 1 192.526 131.003 -5.55112e-17
252 1 165.789 139.047 -5.55112e-17
253 1 106.576 128.378 -5.55112e-17
254 2 26.7514 125.873 -5.55112e-17
255 1 138.106 76.5522 -5.55112e-17
256 1 98.6061 168.615 -5.55112e-17
257 1 95.5672 143.557 -5.55112e-17
258 2 133.104 27.6066 -5.55112e-17
259 1 189.565 181.567 -5.55112e-17
260 1 155.272 93.0127 -5.55112e-17
261 1 200.757 159.465 -5.55112e-17
262 1 93.6877 200.995 -5.55112e-17
263 1 62.5022 46.5582 -5.55112e-17
264 1 140.225 189.738 -5.55112e-17
265 1 174.056 15.4084 -5.55112e-17
266 1 117.522 105.079 -5.55112e-17
267 1 173.272 82.6154 -5.55112e-17
268 1 10.3127 126.065 -5.55112e-17
269 1 99.0539 146.671 -5.55112e-17
270 1 139.735 79.1055 -5.55112e-17
271 1 140.583 105.325 -5.55112e-17
272 1 151.903 128.262 -5.55112e-17
273 1 4.17731 98.195 -5.55112e-17
274 2 206.828 127.568 -5.55112e-17
275 1 179.12 167.09 -5.55112e-17
276 2 204.232 38.468 -5.55112e-17
277 2 129.411 98.3558 -5.55112e-17
278 1 68.0546 174.217 -5.55112e-17
279 2 86.7571 59.5686 -5.55112e-17
280 1 143.693 133.395 -5.55112e-17
281 1 215.975 19.2925 -5.55112e-17
282 1 108.943 75.2631 -5.55112e-17
283 1 185.747 100.176 -5.55112e-17
284 1 58.6133 145.602 -5.55112e-17
285 1 27.1093 68.002 -5.55112e-17
286 2 179.117 72.6175 -5.55112e-17
287 1 197.48 205.986 -5.55112e-17
288 1 61.9455 207.631 -5.55112e-17
289 1 99.1641 33.5822 -5.55112e-17
290 1 205.411 78.4822 -5.55112e-17
291 1 147.274 163.035 -5.55112e-17
292 2 60.1284 152.636 -5.55112e-17
293 2 47.7512 116.547 -5.55112e-17
294 1 6.78157 149.434 -5.55112e-17
295 1 212.174 214.45 -5.55112e-17
296 1 13.294 217.717 -5.55112e-17
297 1 37.3214 164.973 -5.55112e-17
298 1 10.0066 91.8844 -5.55112e-17
299 1 110.385 10.389 -5.55112e-17
300 2 209.956 83.4446 -5.55112e-17
301 1 70.7631 182.977 -5.55112e-17
302 1 13.0643 83.5066 -5.55112e-17
303 2 198.181 151.361 -5.55112e-17
304 2 109.523 150.458 -5.55112e-17
305 1 30.3464 75.4498 -5.55112e-17
306 1 29.519 98.352 -5.55112e-17
307 1 18.911 178.262 -5.55112e-17
308 1 108.444 130.08 -5.55112e-17
309 2 100.579 104.559 -5.55112e-17
310 1 58.988 98.9106 -5.55112e-17
311 1 105.757 199.419 -5.55112e-17
312 1 35.159 117.471 -5.55112e-17
313 2 145.98 157.339 -5.55112e-17
314 1 172.004 32.7861 -5.55112e-17
315 1 211.728 113.82 -5.55112e-17
316 1 174.727 0.308791 -5.55112e-17
317 1 193.158 119.594 -5.55112e-17
318 1 64.8409 153.086 -5.55112e-17
319 1 187.155 80.3243 -5.55112e-17
320 1 38.3118 97.8987 -5.55112e-17
321 1 211.402 189.983 -5.55112e-17
322 1 123.044 162.169 -5.55112e-17
323 1 15.1535 93.7057 -5.55112e-17
324 1 127.828 54.5505 -5.55112e-17
325 1 21.5089 166.061 -5.55112e-17
326 1 78.3854 2.09876 -5.55112e-17
327 2 70.054 158.294 -5.55112e-17
328 1 140.304 71.5729 -5.55112e-17
329 2 218.166 1.18374 -5.55112e-17
330 1 183.607 178.231 -5.55112e-17
331 1 40.4778 65.5217 -5.55112e-17
332 2 107.957 178.651 -5.55112e-17
333 1 132.163 35.1107 -5.55112e-17
334 1 116.868 44.4152 -5.55112e-17
335 1 52.4406 189.414 -5.55112e-17
336 1 53.3841 112.245 -5.55112e-17
337 1 56.3863 58.701 -5.55112e-17
338 1 151.763 173.903 -5.55112e-17
339 1 141.509 46.3943 -5.55112e-17
340 1 141.287 159.222 -5.55112e-17
341 1 24.0561 48.0174 -5.55112e-17
342 1 174.391 172.403 -5.55112e-17
343 1 100.001 20.5256 -5.55112e-17
344 1 163.09 218.779 -5.55112e-17
345 1 143.017 204.491 -5.55112e-17
346 1 99.3077 59.8222 -5.55112e-17
347 1 146.092 61.4041 -5.55112e-17
348 1 191.937 202.97 -5.55112e-17
349 1 88.4005 137.06 -5.55112e-17
350 2 29.945 177.019 -5.55112e-17
351 1 9.08493 44.6428 -5.55112e-17
352 1 151.168 21.3641 -5.55112e-17
353 1 183.492 161.896 -5.55112e-17
354 1 141.483 49.2525 -5.55112e-17
355 1 5.02153 175.594 -5.55112e-17
356 1 64.5987 22.3491 -5.55112e-17
357 1 131.24 176.828 -5.55112e-17
358 1 21.4979 60.2972 -5.55112e-17
359 1 136.645 58.9953 -5.55112e-17
360 1 102.574 207.934 -5.55112e-17
361 1 90.7649 114.849 -5.55112e-17
362 1 202.018 100.113 -5.55112e-17
363 1 161.919 18.3519 -5.55112e-17
364 2 98.419 120.452 -5.55112e-17
365 1 196.6 189.812 -5.55112e-17
366 1 47.9263 80.3628 -5.55112e-17
367 1 169.852 145.848 -5.55112e-17
368 1 175.777 179.351 -5.55112e-17
369 2 54.4687 104.625 -5.55112e-17
370 1 176.765 112.501 -5.55112e-17
371 1 115.234 51.9191 -5.55112e-17
372 2 108.66 72.2325 -5.55112e-17
373 2 16.7786 190.762 -5.55112e-17
374 1 116.618 102.906 -5.55112e-17
375 1 102.302 21.3285 -5.55112e-17
376 1 143.116 28.5705 -5.55112e-17
377 1 14.5192 131.446 -5.55112e-17
378 1 124.402 171.84 -5.55112e-17
379 1 11.9976 27.3465 -5.55112e-17
380 1 4.99138 100.572 -5.55112e-17
381 1 143.16 88.7664 -5.55112e-17
382 1 48.1217 47.7229 -5.55112e-17
383 1 68.12 11.1944 -5.55112e-17
384 1 158.398 151.108 -5.55112e-17
385 1 129.208 126.163 -5.55112e-17
386 2 60.4239 5.6759 -5.55112e-17
387 1 194.291 161.414 -5.55112e-17
388 1 162.761 146.272 -5.55112e-17
389 1 119.239 212.732 -5.55112e-17
390 2 26.1022 91.8027 -5.55112e-17
391 2 63.6882 187.164 -5.55112e-17
392 1 145.796 70.9766 -5.55112e-17
393 1 157.125 3.98544 -5.55112e-17
394 1 132.903 178.938 -5.55112e-17
395 1 88.6612 163.331 -5.55112e-17
396 1 33.5335 9.15681 -5.55112e-17
397 1 199.895 211.576 -5.55112e-17
398 1 162.445 35.4987 -5.55112e-17
399 1 129.296 18.4395 -5.55112e-17
400 1 109.37 146.776 -5.55112e-17
401 1 218.627 78.2187 -5.55112e-17
402 2 29.4939 180.969 -5.55112e-17
403 1 179.592 84.6958 -5.55112e-17
404 1 190.415 115.507 -5.55112e-17
405 1 147.884 177 -5.55112e-17
406 1 163.478 169.122 -5.55112e-17
407 2 148.124 43.6395 -5.55112e-17
408 1 100.763 193.046 -5.55112e-17
409 1 158.258 34.3095 -5.55112e-17
410 1 64.6681 55.2947 -5.55112e-17
411 1 33.2358 69.2969 -5.55112e-17
412 1 106.07 46.1849 -5.55112e-17
413 1 206.837 81.1892 -5.55112e-17
414 1 2.25958 185.662 -5.55112e-17
415 1 173.426 27.6719 -5.55112e-17
416 1 193.012 209.393 -5.55112e-17
417 1 83.0888 215.433 -5.55112e-17
418 2 96.5347 164.488 -5.55112e-17
419 1 167.703 144.662 -5.55112e-17
420 2 188.216 19.7189 -5.55112e-17
421 1 66.2256 9.7192 -5.55112e-17
422 1 202.717 120.515 -5.55112e-17
423 2 107.489 38.3125 -5.55112e-17
424 1 208.546 97.7287 -5.55112e-17
425 1 160.629 90.4872 -5.55112e-17
426 1 117.913 92.5951 -5.55112e-17
427 1 181.64 14.5072 -5.55112e-17
428 1 20.7381 197.738 -5.55112e-17
429 1 61.3084 26.3338 -5.55112e-17
430 1 187.338 164.883 -5.55112e-17
431 1 173.376 202.007 -5.55112e-17
432 1 185.328 134.806 -5.55112e-17
433 1 152.646 88.4488 -5.55112e-17
434 1 150.592 39.8832 -5.55112e-17
435 1 108.309 201.977 -5.55112e-17
436 1 176.878 162.621 -5.55112e-17
437 1 9.20619 124.064 -5.55112e-17
438 2 18.23 210.852 -5.55112e-17
439 1 209.995 59.5772 -5.55112e-17
440 1 20.5489 115.298 -5.55112e-17
441 1 100.135 98.4106 -5.55112e-17
442 1 36.8768 92.8959 -5.55112e-17
443 1 60.7658 38.8757 -5.55112e-17
444 1 197.175 193.933 -5.55112e-17
445 1 14.6283 126.672 -5.55112e-17
446 1 97.228 37.8971 -5.55112e-17
447 1 127.008 175.771 -5.55112e-17
448 1 132.118 8.16823 -5.55112e-17
449 1 43.0868 13.2304 -5.55112e-17
450 1 189.77 140.55 -5.55112e-17
451 1 72.3188 115.271 -5.55112e-17
452 1 159.449 19.1295 -5.55112e-17
453 1 24.9242 200.561 -5.55112e-17
454 1 30.551 145.914 -5.55112e-17
455 1 163.398 117.897 -5.55112e-17
456 1 195.747 19.0237 -5.55112e-17
457 1 37.6643 122.268 -5.55112e-17
458 1 75.1973 206.374 -5.55112e-17
459 1 38.948 77.4598 -5.55112e-17
460 1 188.782 3.2453 -5.55112e-17
461 1 199.357 204.231 -5.55112e-17
462 1 28.0603 121.004 -5.55112e-17
463 1 121.496 43.341 -5.55112e-17
464 1 20.1853 217.169 -5.55112e-17
465 1 24.1918 174.75 -5.55112e-17
466 1 135.225 129.209 -5.55112e-17
467 1 129.657 58.124 -5.55112e-17
468 1 131.333 112.98 -5.55112e-17
469 1 44.2162 132.962 -5.55112e-17
470 1 170.742 82.7513 -5.55112e-17
471 1 78.3019 173.468 -5.55112e-17
472 1 46.9985 180.479 -5.55112e-17
473 1 16.4749 213.187 -5.55112e-17
474 1 135.437 149.646 -5.55112e-17
475 1 167.812 86.8257 -5.55112e-17
476 2 7.73766 159.505 -5.55112e-17
477 1 140.681 40.4531 -5.55112e-17
478 1 79.5657 126.836 -5.55112e-17
479 1 176.118 202.233 -5.55112e-17
480 1 121.361 134.277 -5.55112e-17
481 1 185.415 28.4753 -5.55112e-17
482 1 155.329 69.3923 -5.55112e-17
483 1 123.944 15.8391 -5.55112e-17
484 2 192.621 175.113 -5.55112e-17
485 1 133.699 102.805 -5.55112e-17
486 1 39.6585 5.9267 -5.55112e-17
487 1 74.0256 167.259 -5.55112e-17
488 1 68.2406 80.267 -5.55112e-17
489 1 43.1963 198.86 -5.55112e-17
490 1 55.719 78.6523 -5.55112e-17
491 1 116.139 19.2924 -5.55112e-17
492 1 138.946 58.4113 -5.55112e-17
493 1 48.7669 160.793 -5.55112e-17
494 1 4.01298 17.5419 -5.55112e-17
495 1 17.434 68.1232 -5.55112e-17
496 2 179.499 162.393 -5.55112e-17
497 1 201.771 94.0205 -5.55112e-17
498 1 18.2842 146.312 -5.55112e-17
499 2 214.346 51.7372 -5.55112e-17
500 1 130.843 197.619 -5.55112e-17
501 2 202.559 206.319 -5.55112e-17
502 2 120.272 194.241 -5.55112e-17
503 1 216.677 124.923 -5.55112e-17
504 1 124.861 21.4084 -5.55112e-17
505 1 32.3365 94.1625 -5.55112e-17
506 1 79.7822 195.931 -5.55112e-17
507 1 132.356 83.7679 -5.55112e-17
508 1 49.1564 178.936 -5.55112e-17
509 2 208.758 158.14 -5.55112e-17
510 2 85.4043 104.837 -5.55112e-17
511 1 107.06 66.8981 -5.55112e-17
512 2 130.564 131.295 -5.55112e-17
513 1 138.16 52.6246 -5.55112e-17
514 1 27.2221 77.0062 -5.55112e-17
515 1 54.4076 207.332 -5.55112e-17
516 1 131.453 117.675 -5.55112e-17
517 1 27.423 44.9939 -5.55112e-17
518 2 153.205 33.5238 -5.55112e-17
519 1 69.5867 17.8381 -5.55112e-17
520 2 2.50231 24.4271 -5.55112e-17
521 1 19.267 213.605 -5.55112e-17
522 1 168.326 116.811 -5.55112e-17
523 1 16.309 153.516 -5.55112e-17
524 1 206.628 187.803 -5.55112e-17
525 1 58.9717 27.5183 -5.55112e-17
526 1 146.188 147.557 -5.55112e-17
527 1 171.154 215.836 -5.55112e-17
528 1 65.6606 101.039 -5.55112e-17
529 1 90.9251 29.207 -5.55112e-17
530 1 129.776 9.01277 -5.55112e-17
531 1 111.006 194.188 -5.55112e-17
532 1 6.75192 72.3197 -5.55112e-17
533 1 29.7293 15.1689 -5.55112e-17
534 1 89.375 73.9125 -5.55112e-17
535 1 111.827 187.508 -5.55112e-17
536 1 23.023 184.469 -5.55112e-17
537 1 20.2781 99.6915 -5.55112e-17
538 1 76.7848 106.625 -5.55112e-17
539 1 20.8835 33.1106 -5.55112e-17
540 1 156.186 197.272 -5.55112e-17
541 1 8.98238 164.388 -5.55112e-17
542 1 49.2121 195.618 -5.55112e-17
543 1 162.923 163.513 -5.55112e-17
544 1 207.014 68.3462 -5.55112e-17
545 1 91.2483 15.4293 -5.55112e-17
546 1 154.94 62.0757 -5.55112e-17
547 1 43.5076 51.4718 -5.55112e-17
548 1 110.473 131.578 -5.55112e-17
549 1 193.09 54.1519 -5.55112e-17
550 2 160.229 100.183 -5.55112e-17
551 2 127.916 167.312 -5.55112e-17
552 2 57.9216 63.7221 -5.55112e-17
553 1 7.00992 136.326 -5.55112e-17
554 1 174.908 56.7899 -5.55112e-17
555 2 14.3682 180.76 -5.55112e-17
556 1 29.6177 12.6921 -5.55112e-17
557 1 146.338 160.56 -5.55112e-17
558 1 192.425 167.869 -5.55112e-17
559 1 81.4987 73.9158 -5.55112e-17
560 1 22.6159 98.9382 -5.55112e-17
561 1 3.73967 114.454 -5.55112e-17
562 1 38.0742 11.4114 -5.55112e-17
563 2 86.9361 192.037 -5.55112e-17
564 1 139.853 182.494 -5.55112e-17
565 1 210.523 149.002 -5.55112e-17
566 1 172.202 162.047 -5.55112e-17
567 1 34.3507 92.3986 -5.55112e-17
568 1 215.1 8.35689 -5.55112e-17
569 1 175.697 127.078 -5.55112e-17
570 1 60.0967 55.6265 -5.55112e-17
571 1 71.0063 46.2949 -5.55112e-17
572 1 115.875 143.994 -5.55112e-17
573 1 147.595 1.82907 -5.55112e-17
574 1 121.583 111.364 -5.55112e-17
575 1 24.401 16.3041 -5.55112e-17
576 1 216.113 131.879 -5.55112e-17
577 1 210.59 49.3557 -5.55112e-17
578 1 92.1503 51.6397 -5.55112e-17
579 1 195.468 210.161 -5.55112e-17
580 1 60.8576 213.594 -5.55112e-17
581 1 119.017 106.75 -5.55112e-17
582 1 80.2289 143.729 -5.55112e-17
583 1 27.6642 55.9517 -5.55112e-17
584 2 150.568 107.053 -5.55112e-17
585 1 150.207 124.536 -5.55112e-17
586 1 20.4691 142.766 -5.55112e-17
587 1 28.0444 128.192 -5.55112e-17
588 1 125.056 73.8362 -5.55112e-17
589 1 183.807 206.602 -5.55112e-17
590 1 72.1533 84.0261 -5.55112e-17
591 1 132.383 141.126 -5.55112e-17
592 1 25.9702 119.835 -5.55112e-17
593 1 23.1164 79.7496 -5.55112e-17
594 1 153.453 84.0192 -5.55112e-17
595 1 214.183 206.105 -5.55112e-17
596 1 192.971 185.697 -5.55112e-17
597 2 99.2994 42.6915 -5.55112e-17
598 1 81.2809 211.197 -5.55112e-17
599 1 179.847 140.222 -5.55112e-17
600 1 95.9563 29.5378 -5.55112e-17
601 1 74.3594 199.278 -5.55112e-17
602 1 15.5895 198.078 -5.55112e-17
603 1 181.009 210.208 -5.55112e-17
604 1 51.333 16.9253 -5.55112e-17
605 2 145.426 36.2351 -5.55112e-17
606 1 105.304 50.848 -5.55112e-17
607 2 18.4299 202.509 -5.55112e-17
608 1 72.9547 68.2497 -5.55112e-17
609 1 117.474 4.47431 -5.55112e-17
610 1 218.305 203.998 -5.55112e-17
611 1 16.4711 89.2346 -5.55112e-17
612 1 85.2376 22.8339 -5.55112e-17
613 1 47.6305 5.36802 -5.55112e-17
614 2 193.893 57.0968 -5.55112e-17
615 1 62.9238 88.0388 -5.55112e-17
616 1 103.217 10.037 -5.55112e-17
617 1 19.4115 153.793 -5.55112e-17
618 1 185.904 118.747 -5.55112e-17
619 1 8.29432 77.5686 -5.55112e-17
620 1 190.632 198.231 -5.55112e-17
621 1 133.662 75.7573 -5.55112e-17
622 1 33.2855 195.575 -5.55112e-17
623 1 89.9397 97.796 -5.55112e-17
624 1 143.573 84.4188 -5.55112e-17
625 1 59.5605 42.9806 -5.55112e-17
626 1 120.623 145.574 -5.55112e-17
627 1 72.9004 72.9159 -5.55112e-17
628 1 53.6012 12.2585 -5.55112e-17
629 1 3.55753 119.684 -5.55112e-17
630 2 118.884 197.992 -5.55112e-17
631 1 73.1315 207.358 -5.55112e-17
632 1 27.7096 17.0458 -5.55112e-17
633 1 205.243 141.586 -5.55112e-17
634 1 8.20538 64.8632 -5.55112e-17
635 1 74.6404 12.8131 -5.55112e-17
636 1 168.344 91.4301 -5.55112e-17
637 1 212.178 172.666 -5.55112e-17
638 1 1.04605 129.72 -5.55112e-17
639 2 202.968 18.7881 -5.55112e-17
640 1 186.758 74.1291 -5.55112e-17
641 1 134.962 144.581 -5.55112e-17
642 1 94.717 131.344 -5.55112e-17
643 2 29.439 84.5011 -5.55112e-17
644 1 199.342 69.9934 -5.55112e-17
645 1 44.1238 218.562 -5.55112e-17
646 2 210.871 19.4919 -5.55112e-17
647 1 63.6888 10.4847 -5.55112e-17
648 1 124.407 4.65493 -5.55112e-17
649 2 69.9248 30.7339 -5.55112e-17
650 1 194.183 180.686 -5.55112e-17
651 1 208.03 142.946 -5.55112e-17
652 1 65.531 144.989 -5.55112e-17
653 1 122.708 104.252 -5.55112e-17
654 1 195.151 21.6037 -5.55112e-17
655 2 44.6694 42.5633 -5.55112e-17
656 1 115.623 179.449 -5.55112e-17
657 2 82.5523 23.8353 -5.55112e-17
658 1 71.3738 96.854 -5.55112e-17
659 2 158.169 139.734 -5.55112e-17
660 1 113.037 113.536 -5.55112e-17
661 1 67.4683 82.7712 -5.55112e-17
662 1 40.5068 62.9803 -5.55112e-17
663 1 20.3203 15.2099 -5.55112e-17
664 1 201.827 53.1523 -5.55112e-17
665 1 40.9001 87.2619 -5.55112e-17
666 2 142.687 78.6919 -5.55112e-17
667 1 106.179 0.939307 -5.55112e-17
668 2 101.549 128.194 -5.55112e-17
669 1 19.7739 42.6371 -5.55112e-17
670 1 26.5391 59.6771 -5.55112e-17
671 2 97.5628 80.1432 -5.55112e-17
672 1 79.2379 121.36 -5.55112e-17
673 1 176.251 119.961 -5.55112e-17
674 1 92.4667 106.879 -5.55112e-17
675 1 71.3445 199.452 -5.55112e-17
676 1 204.738 21.0758 -5.55112e-17
677 1 186.207 66.8481 -5.55112e-17
678 1 139.049 206.676 -5.55112e-17
679 2 1.53175 30.5716 -5.55112e-17
680 1 19.0503 54.134 -5.55112e-17
681 2 19.8844 112.623 -5.55112e-17
682 1 55.6869 61.3727 -5.55112e-17
683 1 214.631 214.078 -5.55112e-17
684 1 187.29 212.816 -5.55112e-17
685 1 201.648 131.622 -5.55112e-17
686 1 151.136 210.355 -5.55112e-17
687 1 198.239 36.116 -5.55112e-17
688 1 81.9194 124.954 -5.55112e-17
689 2 114.509 42.9948 -5.55112e-17
690 1 73.6629 164.578 -5.55112e-17
691 1 67.1874 154.261 -5.55112e-17
692 1 65.4395 142.591 -5.55112e-17
693 1 25.9218 129.128 -5.55112e-17
694 1 73.0058 186.783 -5.55112e-17
695 1 199.635 178.111 -5.55112e-17
696 1 89.713 139.368 -5.55112e-17
697 1 68.9 91.7886 -5.55112e-17
698 1 182.323 199.774 -5.55112e-17
699 1 41.7492 89.6521 -5.55112e-17
700 1 217.687 117.039 -5.55112e-17
701 1 179.139 123.744 -5.55112e-17
702 1 41.7473 3.92909 -5.55112e-17
703 2 90.2485 76.7087 -5.55112e-17
704 1 147.617 145.617 -5.55112e-17
705 2 33.7773 210.409 -5.55112e-17
706 1 97.5125 19.1021 -5.55112e-17
707 1 136.625 196.14 -5.55112e-17
708 1 208.654 168.961 -5.55112e-17
709 1 15.4355 44.4966 -5.55112e-17
710 1 191.275 2.47204 -5.55112e-17
711 1 141.086 6.38678 -5.55112e-17
712 1 120.765 179.614 -5.55112e-17
713 1 149.493 129.53 -5.55112e-17
714 1 97.8915 144.056 -5.55112e-17
715 1 173.972 48.2486 -5.55112e-17
716 1 185.077 163.846 -5.55112e-17
717 1 122.061 94.196 -5.55112e-17
718 1 91.4981 61.0154 -5.55112e-17
719 2 33.8598 164.363 -5.55112e-17
720 1 36.9116 140.811 -5.55112e-17
721 1 90.7297 175.07 -5.55112e-17
722 1 122.856 27.2188 -5.55112e-17
723 2 141.741 66.7588 -5.55112e-17
724 1 207.438 120.557 -5.55112e-17
725 1 12.6174 53.6022 -5.55112e-17
726 1 23.8381 164.884 -5.55112e-17
727 1 80.1478 55.8762 -5.55112e-17
728 2 71.7848 53.5923 -5.55112e-17
729 1 144.811 77.0849 -5.55112e-17
730 1 8.9575 17.0522 -5.55112e-17
731 1 73.7581 79.1165 -5.55112e-17
732 1 48.7095 163.513 -5.55112e-17
733 1 200.762 136.253 -5.55112e-17
734 1 37.679 195.836 -5.55112e-17
735 1 39.3296 189.096 -5.55112e-17
736 2 140.252 179.55 -5.55112e-17
737 1 94.8017 117.851 -5.55112e-17
738 1 218.218 28.7007 -5.55112e-17
739 1 197.205 201.066 -5.55112e-17
740 1 196.576 69.6045 -5.55112e-17
741 2 189.669 90.264 -5.55112e-17
742 1 108.401 95.245 -5.55112e-17
743 1 175.938 91.5866 -5.55112e-17
744 2 5.04243 53.7916 -5.55112e-17
745 1 187.029 57.9769 -5.55112e-17
746 1 158.233 144.2 -5.55112e-17
747 2 174.521 164.185 -5.55112e-17
748 1 154.855 178.468 -5.55112e-17
749 1 166.669 5.69919 -5.55112e-17
750 1 170.827 157.694 -5.55112e-17
751 1 82.1865 110.386 -5.55112e-17
752 1 21.6054 126 -5.55112e-17
753 1 172.698 142.171 -5.55112e-17
754 1 169.362 209.036 -5.55112e-17
755 1 212.485 92.0552 -5.55112e-17
756 2 158.559 175.475 -5.55112e-17
757 1 160.815 54.4052 -5.55112e-17
758 1 148.763 204.644 -5.55112e-17
759 1 103.992 131.942 -5.55112e-17
760 1 181.137 5.45954 -5.55112e-17
761 1 80.5873 21.6775 -5.55112e-17
762 1 122.664 55.2945 -5.55112e-17
763 1 173.664 99.2879 -5.55112e-17
764 2 189.639 130.629 -5.55112e-17
765 1 104.086 80.5906 -5.55112e-17
766 1 31.5226 79.8133 -5.55112e-17
767 1 144.163 207.154 -5.55112e-17
768 1 91.692 137.838 -5.55112e-17
769 1 14.4626 188.56 -5.55112e-17
770 2 77.9118 88.5334 -5.55112e-17
771 1 139.221 99.5401 -5.55112e-17
772 1 150.484 215.139 -5.55112e-17
773 1 125.675 129.397 -5.55112e-17
774 1 135.072 88.8007 -5.55112e-17
775 1 115.621 2.90079 -5.55112e-17
776 1 90.4056 166.466 -5.55112e-17
777 1 178.921 54.3129 -5.55112e-17
778 1 161.811 78.1772 -5.55112e-17
779 1 85.7626 130.751 -5.55112e-17
780 1 14.6472 30.5408 -5.55112e-17
781 1 145.977 168.295 -5.55112e-17
782 1 156.224 145.189 -5.55112e-17
783 1 62.1317 197.548 -5.55112e-17
784 2 166.99 47.3626 -5.55112e-17
785 1 62.5059 54.0667 -5.55112e-17
786 1 62.5526 125.988 -5.55112e-17
787 1 89.6434 102.786 -5.55112e-17
788 1 37.7317 137.862 -5.55112e-17
789 2 38.9089 28.261 -5.55112e-17
790 1 169.301 15.6192 -5.55112e-17
791 2 20.2286 194.594 -5.55112e-17
792 2 67.7521 140.698 -5.55112e-17
793 2 135.896 117.208 -5.55112e-17
794 1 132.776 73.6919 -5.55112e-17
795 1 179.182 137.451 -5.55112e-17
796 1 37.274 162.443 -5.55112e-17
797 1 67.6383 98.8102 -5.55112e-17
798 2 102.302 86.0423 -5.55112e-17
799 2 164.964 201.553 -5.55112e-17
800 2 25.8171 53.6362 -5.55112e-17
801 1 110.514 88.8424 -5.55112e-17
802 1 12.8908 109.209 -5.55112e-17
803 1 30.0667 95.7056 -5.55112e-17
804 2 66.696 31.7303 -5.55112e-17
805 1 53.9641 177.479 -5.55112e-17
806 1 4.76491 125.136 -5.55112e-17
807 2 152.642 186.155 -5.55112e-17
808 1 129.037 188.785 -5.55112e-17
809 2 197.939 122.485 -5.55112e-17
810 1 38.3686 50.1779 -5.55112e-17
811 1 61.5948 134.347 -5.55112e-17
812 1 46.7132 45.2076 -5.55112e-17
813 2 120.333 137.237 -5.55112e-17
814 1 104.413 108.903 -5.55112e-17
815 1 91.1882 1.34994 -5.55112e-17
816 1 112.914 69.0372 -5.55112e-17
817 1 20.2434 40.2027 -5.55112e-17
818 1 115.112 81.2474 -5.55112e-17
819 1 156.656 126.601 -5.55112e-17
820 1 11.4281 181.968 -5.55112e-17
821 1 119.077 170.315 -5.55112e-17
822 2 133.36 196.495 -5.55112e-17
823 2 117.903 146.157 -5.55112e-17
824 1 202.798 186.057 -5.55112e-17
825 1 190.056 26.0948 -5.55112e-17
826 1 35.3726 90.0434 -5.55112e-17
827 1 123.486 71.9296 -5.55112e-17
828 1 73.0129 93.9944 -5.55112e-17
829 1 148.378 60.2768 -5.55112e-17
830 1 87.4569 45.2625 -5.55112e-17
831 1 195.688 173.512 -5.55112e-17
832 1 4.20127 79.2083 -5.55112e-17
833 1 60.6918 64.4424 -5.55112e-17
834 1 89.9596 49.8527 -5.55112e-17
835 1 67.6053 146.106 -5.55112e-17
836 1 77.4284 160.844 -5.55112e-17
837 1 42.6147 64.4277 -5.55112e-17
838 1 176.279 16.4807 -5.55112e-17
839 2 175.985 101.341 -5.55112e-17
840 1 183.07 115.758 -5.55112e-17
841 2 184.322 149.015 -5.55112e-17
842 1 115.157 35.7964 -5.55112e-17
843 2 82.0498 13.8198 -5.55112e-17
844 1 182.218 141.18 -5.55112e-17
845 1 32.1163 134.002 -5.55112e-17
846 1 5.94296 13.0142 -5.55112e-17
847 1 113.633 31.8041 -5.55112e-17
848 1 119.48 69.8629 -5.55112e-17
849 1 154.941 95.7119 -5.55112e-17
850 1 1.07584 73.8003 -5.55112e-17
851 1 25.5131 166.97 -5.55112e-17
852 1 10.8136 104.178 -5.55112e-17
853 1 206.105 164.019 -5.55112e-17
854 1 111.159 91.034 -5.55112e-17
855 1 134.93 110.366 -5.55112e-17
856 1 46.7725 204.212 -5.55112e-17