ITEM: TIMESTEP
0
ITEM: NUMBER OF ATOMS
7200
ITEM: BOX BOUNDS xy xz yz pp pp pp
0.0000000000000000e+00 2.1900000000000000e+02 0.0000000000000000e+00
0.0000000000000000e+00 2.1900000000000000e+02 0.0000000000000000e+00
-3.6499999999999999e-01 3.6499999999999999e-01 0.0000000000000000e+00
ITEM: ATOMS id type x y z
1 1 211.045 122.091 -5.55112e-17
2 1 8.31941 8.77756 -5.55112e-17
3 1 3.15152 131.038 -5.55112e-17
4 1 88.2582 68.8287 -5.55112e-17
5 1 106.892 80.6274 -5.55112e-17
6 1 195.802 200.207 -5.55112e-17
7 1 7.24058 25.6028 -5.55112e-17
8 2 4.38133 208.891 -5.55112e-17
9 1 105.275 4.30319 -5.55112e-17
10 2 194.446 5.9767 -5.55112e-17
11 1 36.6035 54.6054 -5.55112e-17
12 1 69.6062 15.665 -5.55112e-17
13 2 91.6657 195.882 -5.55112e-17
14 1 92.3975 8.24188 -5.55112e-17
15 1 49.0444 203.032 -5.55112e-17
16 2 85.1207 162.619 -5.55112e-17
17 1 27.6257 157.972 -5.55112e-17
18 2 106.099 205.745 -5.55112e-17
19 1 151.854 0.27169 -5.55112e-17
20 1 45.6877 138.412 -5.55112e-17
21 1 14.0782 181.668 -5.55112e-17
22 2 131.296 63.9619 -5.55112e-17
23 2 42.0434 35.7554 -5.55112e-17
24 1 21.5147 198.488 -5.55112e-17
25 1 78.0655 127.086 -5.55112e-17
26 2 46.984 95.6312 -5.55112e-17
27 1 75.0167 85.1491 -5.55112e-17
28 2 99.7514 52.2223 -5.55112e-17
29 1 169.057 162.979 -5.55112e-17
30 1 180.059 58.5835 -5.55112e-17
31 1 8.63972 142.134 -5.55112e-17
32 1 210.489 46.2151 -5.55112e-17
33 1 122.971 196.683 -5.55112e-17
34 1 70.0338 172.383 -5.55112e-17
35 1 88.8238 137.945 -5.55112e-17
36 1 213.732 118.84 -5.55112e-17
37 2 62.8644 196.31 -5.55112e-17
38 1 47.1457 81.3988 -5.55112e-17
39 1 105.856 96.7617 -5.55112e-17
40 1 68.5681 130.793 -5.55112e-17
41 1 95.9533 176.064 -5.55112e-17
42 1 179.121 2.84012 -5.55112e-17
43 1 103.293 205.602 -5.55112e-17
44 1 195.152 197.358 -5.55112e-17
45 1 206.201 32.0574 -5.55112e-17
46 1 139.775 162.726 -5.55112e-17
47 1 86.1901 146.654 -5.55112e-17
48 2 152.142 205.967 -5.55112e-17
49 1 96.508 194.782 -5.55112e-17
50 1 93.1981 119.901 -5.55112e-17
51 1 142.836 30.8447 -5.55112e-17
52 1 98.0859 12.1174 -5.55112e-17
53 1 147.304 111.008 -5.55112e-17
54 1 204.827 46.8097 -5.55112e-17
55 1 38.7949 63.8323 -5.55112e-17
56 1 36.7669 69.7067 -5.55112e-17
57 2 216.37 211.597 -5.55112e-17
58 1 182.874 46.6363 -5.55112e-17
59 1 42.477 47.0578 -5.55112e-17
60 2 52.8348 53.5292 -5.55112e-17
61 2 205.136 163.129 -5.55112e-17
62 1 167.943 91.8523 -5.55112e-17
63 1 145.139 153.467 -5.55112e-17
64 1 87.8257 84.2706 -5.55112e-17
65 1 35.9319 1.10679 -5.55112e-17
66 1 158.067 18.3754 -5.55112e-17
67 1 12.4093 179.769 -5.55112e-17
68 1 42.292 111.603 -5.55112e-17
69 1 44.3964 168.559 -5.55112e-17
70 1 178.055 12.7597 -5.55112e-17
71 1 132.224 99.047 -5.55112e-17
72 1 157.287 197.991 -5.55112e-17
73 1 194.463 131.835 -5.55112e-17
74 1 63.8243 55.4508 -5.55112e-17
75 2 217.97 22.5625 -5.55112e-17
76 1 116.556 88.1359 -5.55112e-17
77 1 76.2426 216.657 -5.55112e-17
78 1 23.7163 160.522 -5.55112e-17
79 2 207.967 98.027 -5.55112e-17
80 1 185.524 76.571 -5.55112e-17
81 1 43.4721 14.9052 -5.55112e-17
82 1 47.0366 30.8065 -5.55112e-17
83 2 133.232 44.9718 -5.55112e-17
84 1 70.7326 41.3545 -5.55112e-17
85 1 25.4518 3.32294 -5.55112e-17
86 1 176.381 67.1997 -5.55112e-17
87 1 49.8558 158.976 -5.55112e-17
88 1 151.308 180.723 -5.55112e-17
89 2 29.0488 79.6783 -5.55112e-17
90 2 31.1523 40.5415 -5.55112e-17
91 1 194.202 62.9961 -5.55112e-17
92 2 113.649 13.0821 -5.55112e-17
93 1 4.16365 97.2395 -5.55112e-17
94 2 45.9477 20.4819 -5.55112e-17
95 1 121.273 94.0046 -5.55112e-17
96 1 80.1565 187.577 -5.55112e-17
97 1 211.326 71.2915 -5.55112e-17
98 1 156.413 123.683 -5.55112e-17
99 1 111.029 74.7954 -5.55112e-17
100 1 75.093 88.103 -5.55112e-17
101 1 83.2312 44.6379 -5.55112e-17
102 1 111.752 187.202 -5.55112e-17
103 1 110.976 213.592 -5.55112e-17
104 1 111.536 45.9718 -5.55112e-17
105 1 15.9062 59.4424 -5.55112e-17
106 1 117.149 92.5586 -5.55112e-17
107 2 161.566 217.923 -5.55112e-17
108 1 83.1406 68.7031 -5.55112e-17
109 1 13.9501 174.743 -5.55112e-17
110 1 145.886 198.76 -5.55112e-17
111 1 216.787 130.272 -5.55112e-17
112 1 21.0081 131.174 -5.55112e-17
113 1 43.8462 107.645 -5.55112e-17
114 1 123.714 74.6973 -5.55112e-17
115 1 217.246 34.5438 -5.55112e-17
116 2 61.6398 95.0791 -5.55112e-17
117 1 39.5773 166.833 -5.55112e-17
118 1 104.335 65.8817 -5.55112e-17
119 2 86.1526 217.187 -5.55112e-17
120 1 109.235 44.7933 -5.55112e-17
121 1 146.559 190.874 -5.55112e-17
122 1 121.852 14.5495 -5.55112e-17
123 1 131.626 176.357 -5.55112e-17
124 1 97.4334 91.525 -5.55112e-17
125 1 191.859 135.703 -5.55112e-17
126 1 207.309 180.133 -5.55112e-17
127 1 26.6039 200.431 -5.55112e-17
128 1 152.429 44.008 -5.55112e-17
129 1 156.982 195.233 -5.55112e-17
130 1 133.58 62.0995 -5.55112e-17
131 1 66.6067 33.5587 -5.55112e-17
132 2 117.944 50.052 -5.55112e-17
133 1 109.018 30.5664 -5.55112e-17
134 1 196.043 135.901 -5.55112e-17
135 1 156.857 60.9886 -5.55112e-17
136 1 174.521 90.3251 -5.55112e-17
137 1 171.147 25.8447 -5.55112e-17
138 1 104.912 85.5538 -5.55112e-17
139 1 57.9931 58.6663 -5.55112e-17
140 2 186.433 108.804 -5.55112e-17
141 1 63.896 156.153 -5.55112e-17
142 2 39.4549 46.164 -5.55112e-17
143 1 14.8884 16.1907 -5.55112e-17
144 2 63.6941 60.295 -5.55112e-17
145 1 193.526 57.2333 -5.55112e-17
146 1 62.7659 28.0842 -5.55112e-17
147 1 218.032 204.322 -5.55112e-17
148 1 87.6876 73.9919 -5.55112e-17
149 1 173.987 136.945 -5.55112e-17
150 1 73.5456 132.156 -5.55112e-17
151 1 168.171 20.8002 -5.55112e-17
152 1 24.2704 138.384 -5.55112e-17
153 2 190.964 112.323 -5.55112e-17
154 1 17.5563 133.979 -5.55112e-17
155 1 116.2 34.8359 -5.55112e-17
156 2 125.092 24.9302 -5.55112e-17
157 1 78.5533 217.457 -5.55112e-17
158 1 176.5 55.3741 -5.55112e-17
159 1 117.268 197.673 -5.55112e-17
160 1 1.56034 172.869 -5.55112e-17
161 1 85.8867 41.158 -5.55112e-17
162 1 71.3075 179.836 -5.55112e-17
163 1 172.887 149.138 -5.55112e-17
164 1 87.8011 212.66 -5.55112e-17
165 1 79.4391 170.282 -5.55112e-17
166 2 111.075 96.3213 -5.55112e-17
167 1 216.961 154.774 -5.55112e-17
168 1 110.756 42.902 -5.55112e-17
169 1 62.6475 144.994 -5.55112e-17
170 1 81.223 145.176 -5.55112e-17
171 1 97.1493 93.8822 -5.55112e-17
172 1 31.8408 183.281 -5.55112e-17
173 1 43.2268 189.761 -5.55112e-17
174 1 28.2334 68.5618 -5.55112e-17
175 2 9.25184 44.4573 -5.55112e-17
176 1 207.679 190.1 -5.55112e-17
177 2 44.245 121.928 -5.55112e-17
178 1 194.745 178.926 -5.55112e-17
179 1 57.0498 13.9291 -5.55112e-17
180 1 216.999 168.794 -5.55112e-17
181 1 134.543 11.9455 -5.55112e-17
182 2 16.6005 76.3464 -5.55112e-17
183 1 74.9179 112.649 -5.55112e-17
184 1 51.0065 86.8825 -5.55112e-17
185 2 200.18 117.559 -5.55112e-17
186 2 125.072 87.1894 -5.55112e-17
187 1 93.2905 126.722 -5.55112e-17
188 1 27.038 202.991 -5.55112e-17
189 1 18.01 127.716 -5.55112e-17
190 2 49.4927 51.1137 -5.55112e-17
191 1 5.31715 145.828 -5.55112e-17
192 2 138.708 14.956 -5.55112e-17
193 2 88.4834 29.722 -5.55112e-17
194 1 110.579 113.963 -5.55112e-17
195 1 215.376 171.473 -5.55112e-17
196 1 2.81669 178.015 -5.55112e-17
197 1 195.619 90.0431 -5.55112e-17
198 2 134.345 90.6493 -5.55112e-17
199 1 218.871 101.549 -5.55112e-17
200 1 59.3758 32.7173 -5.55112e-17
201 2 209.255 18.4857 -5.55112e-17
202 1 34.6795 95.7683 -5.55112e-17
203 1 75.0722 39.668 -5.55112e-17
204 1 20.0988 20.3086 -5.55112e-17
205 2 167.41 149.516 -5.55112e-17
206 1 2.56897 84.7817 -5.55112e-17
207 1 107.47 43.3705 -5.55112e-17
208 1 56.5843 116.854 -5.55112e-17
209 1 166.255 30.4437 -5.55112e-17
210 1 154.335 168.164 -5.55112e-17
211 2 25.6343 133.93 -5.55112e-17
212 1 28.0036 187.198 -5.55112e-17
213 1 80.1257 190.109 -5.55112e-17
214 1 13.9312 217.055 -5.55112e-17
215 1 175.993 165.688 -5.55112e-17
216 1 52.1457 18.7433 -5.55112e-17
217 1 3.90719 116.741 -5.55112e-17
218 2 28.5636 194.806 -5.55112e-17
219 1 182.64 38.4503 -5.55112e-17
220 2 57.0888 158.722 -5.55112e-17
221 1 65.7786 86.0082 -5.55112e-17
222 1 217.2 125.3 -5.55112e-17
223 1 127.378 66.63 -5.55112e-17
224 2 207.752 175.049 -5.55112e-17
225 1 169.7 195.242 -5.55112e-17
226 1 4.95473 68.9453 -5.55112e-17
227 2 156.147 94.3118 -5.55112e-17
228 1 43.7989 182.749 -5.55112e-17
229 1 32.5798 120.78 -5.55112e-17
230 1 195.904 100.347 -5.55112e-17
231 1 98.5193 54.7301 -5.55112e-17
232 1 118.533 74.2322 -5.55112e-17
233 1 116.439 201.671 -5.55112e-17
234 1 112.294 100.967 -5.55112e-17
235 1 177.295 188.153 -5.55112e-17
236 1 12.5651 110.364 -5.55112e-17
237 1 4.9444 20.0074 -5.55112e-17
238 1 116.215 4.86756 -5.55112e-17
239 2 189.712 17.9648 -5.55112e-17
240 1 153.455 165.918 -5.55112e-17
241 2 83.3358 179.944 -5.55112e-17
242 2 112.643 4.51217 -5.55112e-17
243 2 134.193 161.573 -5.55112e-17
244 1 98.2051 150.285 -5.55112e-17
245 1 72.5791 89.4874 -5.55112e-17
246 1 30.4301 188.226 -5.55112e-17
247 1 162.387 21.894 -5.55112e-17
248 1 134.489 73.0139 -5.55112e-17
249 1 156.906 125.952 -5.55112e-17
250 2 62.8508 153.508 -5.55112e-17
251 1 9.89869 121.488 -5.55112e-17
252 1 23.1766 211.888 -5.55112e-17
253 1 46.9545 74.4574 -5.55112e-17
254 2 162.578 83.4194 -5.55112e-17
255 1 213.193 197.765 -5.55112e-17
256 1 72.5838 208.03 -5.55112e-17
257 1 66.5836 178.492 -5.55112e-17
258 2 57.33 80.9635 -5.55112e-17
259 1 79.5471 155.827 -5.55112e-17
260 1 194.854 140.445 -5.55112e-17
261 1 190.174 186.698 -5.55112e-17
262 1 102.739 17.7522 -5.55112e-17
263 1 198.127 46.0205 -5.55112e-17
264 1 43.0048 66.4386 -5.55112e-17
265 1 180.39 69.3246 -5.55112e-17
266 1 77.2834 117.404 -5.55112e-17
267 1 149.714 70.7102 -5.55112e-17
268 1 63.8426 20.4138 -5.55112e-17
269 1 63.334 86.9061 -5.55112e-17
270 1 39.5481 160.01 -5.55112e-17
271 1 78.7633 194.369 -5.55112e-17
272 1 108.786 167.742 -5.55112e-17
273 1 113.551 8.83443 -5.55112e-17
274 2 57 55.7596 -5.55112e-17
275 1 33.3813 171.182 -5.55112e-17
276 2 209.522 0.290645 -5.55112e-17
277 2 74.8681 127.461 -5.55112e-17
278 1 145.863 184.475 -5.55112e-17
279 2 82.8502 186.215 -5.55112e-17
280 1 200.201 44.676 -5.55112e-17
281 1 181.232 43.1083 -5.55112e-17
282 1 173.13 169.043 -5.55112e-17
283 1 61.7489 184.323 -5.55112e-17
284 1 63.5825 66.9533 -5.55112e-17
285 1 207.382 42.8966 -5.55112e-17
286 2 121.107 73.0169 -5.55112e-17
287 1 90.5627 17.5834 -5.55112e-17
288 1 50.8218 171.157 -5.55112e-17
289 1 182.713 18.9437 -5.55112e-17
290 1 170.471 100.038 -5.55112e-17
291 1 34.6063 37.8103 -5.55112e-17
292 2 11.6711 65.6306 -5.55112e-17
293 2 14.0008 171.902 -5.55112e-17
294 1 54.4472 203.032 -5.55112e-17
295 1 34.6728 160.449 -5.55112e-17
296 1 106.788 158.833 -5.55112e-17
297 1 58.6724 38.0035 -5.55112e-17
298 1 25.2538 207.375 -5.55112e-17
299 1 141.253 16.3259 -5.55112e-17
300 2 40.5498 155.022 -5.55112e-17
301 1 116.065 159.747 -5.55112e-17
302 1 7.71294 31.1663 -5.55112e-17
303 2 201.186 134.658 -5.55112e-17
304 2 174.847 189.522 -5.55112e-17
305 1 88.6323 12.173 -5.55112e-17
306 1 3.59519 184.743 -5.55112e-17
307 1 43.2309 55.0897 -5.55112e-17
308 1 104.038 193.442 -5.55112e-17
309 2 179.853 107.73 -5.55112e-17
310 1 7.56225 77.2104 -5.55112e-17
311 1 89.8862 140.208 -5.55112e-17
312 1 79.1338 17.518 -5.55112e-17
313 2 54.5879 23.2019 -5.55112e-17
314 1 212.773 187.85 -5.55112e-17
315 1 115.644 199.382 -5.55112e-17
316 1 215.949 29.8312 -5.55112e-17
317 1 183.297 215.863 -5.55112e-17
318 1 178.99 136.18 -5.55112e-17
319 1 7.67366 39.5453 -5.55112e-17
320 1 133.458 41.9862 -5.55112e-17
321 1 121.019 110.632 -5.55112e-17
322 1 108.375 38.4234 -5.55112e-17
323 1 41.6331 122.993 -5.55112e-17
324 1 206.686 76.3909 -5.55112e-17
325 1 85.1449 130.371 -5.55112e-17
326 1 68.3069 87.0862 -5.55112e-17
327 2 157.072 70.5979 -5.55112e-17
328 1 3.85851 64.1042 -5.55112e-17
329 2 125.819 18.2679 -5.55112e-17
330 1 113.424 105.078 -5.55112e-17
331 1 107.525 25.2206 -5.55112e-17
332 2 46.1457 207.374 -5.55112e-17
333 1 99.4419 35.5791 -5.55112e-17
334 1 98.0753 86.6073 -5.55112e-17
335 1 38.8169 31.2336 -5.55112e-17
336 1 54.6046 121.958 -5.55112e-17
337 1 109.706 93.8087 -5.55112e-17
338 1 7.82309 52.8156 -5.55112e-17
339 1 149.55 218.739 -5.55112e-17
340 1 95.2471 204.315 -5.55112e-17
341 1 3.27598 106.597 -5.55112e-17
342 1 58.2797 115.115 -5.55112e-17
343 1 92.9269 69.1544 -5.55112e-17
344 1 69.8669 143.086 -5.55112e-17
345 1 212.219 128.486 -5.55112e-17
346 1 49.3811 58.0595 -5.55112e-17
347 1 215.795 183.777 -5.55112e-17
348 1 184.668 8.96585 -5.55112e-17
349 1 185.669 145.14 -5.55112e-17
350 2 7.04973 71.8251 -5.55112e-17
351 1 187.119 194.604 -5.55112e-17
352 1 216.583 152.188 -5.55112e-17
353 1 143.34 180.61 -5.55112e-17
354 1 195.597 176.535 -5.55112e-17
355 1 144.358 71.8935 -5.55112e-17
356 1 120.036 160.349 -5.55112e-17
357 1 42.4058 179.007 -5.55112e-17
358 1 187.855 40.2682 -5.55112e-17
359 1 15.9791 100.307 -5.55112e-17
360 1 132.726 153.054 -5.55112e-17
361 1 148.324 184.201 -5.55112e-17
362 1 142.482 152.874 -5.55112e-17
363 1 43.1396 88.5554 -5.55112e-17
364 2 64.6152 183.772 -5.55112e-17
365 1 24.0984 80.5403 -5.55112e-17
366 1 154.333 174.614 -5.55112e-17
367 1 213.745 101.589 -5.55112e-17
368 1 211.747 114.276 -5.55112e-17
369 2 65.7834 131.041 -5.55112e-17
370 1 194.253 124.417 -5.55112e-17
371 1 207.974 164.427 -5.55112e-17
372 2 55.61 148.852 -5.55112e-17
373 2 126.654 190.278 -5.55112e-17
374 1 61.076 41.1337 -5.55112e-17
375 1 116.089 149.82 -5.55112e-17
376 1 159.764 214.763 -5.55112e-17
377 1 204.75 129.689 -5.55112e-17
378 1 116.885 39.8145 -5.55112e-17
379 1 102.515 10.4206 -5.55112e-17
380 1 153.264 51.0753 -5.55112e-17
381 1 5.53242 53.5901 -5.55112e-17
382 1 21.4051 113.488 -5.55112e-17
383 1 2.33604 101.893 -5.55112e-17
384 1 185.627 167.748 -5.55112e-17
385 1 202.4 23.1667 -5.55112e-17
386 2 32.1499 141.94 -5.55112e-17
387 1 66.0105 6.51237 -5.55112e-17
388 1 140.584 78.8802 -5.55112e-17
389 1 183.062 77.1245 -5.55112e-17
390 2 98.5378 96.4272 -5.55112e-17
391 2 46.6473 135.581 -5.55112e-17
392 1 44.6562 37.6709 -5.55112e-17
393 1 163.344 197.886 -5.55112e-17
394 1 62.1191 12.4104 -5.55112e-17
395 1 131.496 170.482 -5.55112e-17
396 1 113.513 51.0289 -5.55112e-17
397 1 191.401 31.1556 -5.55112e-17
398 1 120.58 80.7263 -5.55112e-17
399 1 131.229 137.929 -5.55112e-17
400 1 111.225 35.018 -5.55112e-17
401 1 21.0359 52.0421 -5.55112e-17
402 2 2.37701 38.7259 -5.55112e-17
403 1 97.5195 188.953 -5.55112e-17
404 1 132.067 56.8182 -5.55112e-17
405 1 34.9896 153.76 -5.55112e-17
406 1 143.897 186.495 -5.55112e-17
407 2 136.128 188.195 -5.55112e-17
408 1 64.9996 198.206 -5.55112e-17
409 1 176.384 88.864 -5.55112e-17
410 1 60.1437 182.441 -5.55112e-17
411 1 98.9504 81.8502 -5.55112e-17
412 1 104.816 146.174 -5.55112e-17
413 1 71.1653 164.1 -5.55112e-17
414 1 181.348 143.827 -5.55112e-17
415 1 129.195 172.163 -5.55112e-17
416 1 204.022 16.6497 -5.55112e-17
417 1 41.2774 64.2101 -5.55112e-17
418 2 106.917 156.203 -5.55112e-17
419 1 152.343 46.364 -5.55112e-17
420 2 72.5964 161.021 -5.55112e-17
421 1 30.4258 98.9576 -5.55112e-17
422 1 137.931 112.032 -5.55112e-17
423 2 19.0064 216.828 -5.55112e-17
424 1 203.917 149.982 -5.55112e-17
425 1 50.5717 72.5143 -5.55112e-17
426 1 137.952 132.609 -5.55112e-17
427 1 116.02 25.9195 -5.55112e-17
428 1 119.986 204.824 -5.55112e-17
429 1 158.085 56.718 -5.55112e-17
430 1 162.412 108.598 -5.55112e-17
431 1 168.979 82.5783 -5.55112e-17
432 1 93.8119 117.342 -5.55112e-17
433 1 65.0376 109.174 -5.55112e-17
434 1 43.0343 8.13201 -5.55112e-17
435 1 13.8308 186.358 -5.55112e-17
436 1 43.9115 0.250994 -5.55112e-17
437 1 80.407 128.654 -5.55112e-17
438 2 37.6707 18.6335 -5.55112e-17
439 1 112.839 182.313 -5.55112e-17
440 1 51.6249 142.107 -5.55112e-17
441 1 195.527 1.33798 -5.55112e-17
442 1 159.329 29.3432 -5.55112e-17
443 1 140.8 199.44 -5.55112e-17
444 1 199.028 214.344 -5.55112e-17
445 1 12.2774 68.9979 -5.55112e-17
446 1 37.197 150.221 -5.55112e-17
447 1 13.2702 206.031 -5.55112e-17
448 1 47.8228 153.228 -5.55112e-17
449 1 196.239 74.9012 -5.55112e-17
450 1 196.201 111.449 -5.55112e-17
451 1 192.693 81.1456 -5.55112e-17
452 1 134.398 125.507 -5.55112e-17
453 1 200.502 31.3729 -5.55112e-17
454 1 138.092 150.265 -5.55112e-17
455 1 90.0745 203.506 -5.55112e-17
456 1 125.293 104.84 -5.55112e-17
457 1 217.28 146.516 -5.55112e-17
458 1 196.209 67.0159 -5.55112e-17
459 1 174.892 92.7678 -5.55112e-17
460 1 200.976 52.9999 -5.55112e-17
461 1 202.484 26.4272 -5.55112e-17
462 1 39.8365 207.211 -5.55112e-17
463 1 15.2392 155.498 -5.55112e-17
464 1 106.936 218.933 -5.55112e-17
465 1 13.4262 114.892 -5.55112e-17
466 1 161.114 148.307 -5.55112e-17
467 1 189.897 33.0773 -5.55112e-17
468 1 83.1436 126.859 -5.55112e-17
469 1 90.7045 0.62142 -5.55112e-17
470 1 215.965 120.145 -5.55112e-17
471 1 162.088 210.437 -5.55112e-17
472 1 90.3054 48.8456 -5.55112e-17
473 1 47.7406 186.147 -5.55112e-17
474 1 18.3687 206.949 -5.55112e-17
475 1 152.611 24.2335 -5.55112e-17
476 2 163.713 147.709 -5.55112e-17
477 1 85.0471 157.748 -5.55112e-17
478 1 131.719 23.0268 -5.55112e-17
479 1 133.113 29.9385 -5.55112e-17
480 1 61.9561 174.675 -5.55112e-17
481 1 213.354 135.156 -5.55112e-17
482 1 28.1801 39.7217 -5.55112e-17
483 1 50.6194 0.850777 -5.55112e-17
484 2 77.6433 177.678 -5.55112e-17
485 1 189.375 213.388 -5.55112e-17
486 1 129.998 130.535 -5.55112e-17
487 1 5.27478 17.5386 -5.55112e-17
488 1 190.502 40.2446 -5.55112e-17
489 1 159.619 138.244 -5.55112e-17
490 1 92.5703 51.0379 -5.55112e-17
491 1 115.374 114.724 -5.55112e-17
492 1 36.3599 81.7501 -5.55112e-17
493 1 45.0234 32.5191 -5.55112e-17
494 1 157.405 215.024 -5.55112e-17
495 1 216.715 14.371 -5.55112e-17
496 2 148.295 209.695 -5.55112e-17
497 1 177.993 101.882 -5.55112e-17
498 1 105.908 114.836 -5.55112e-17
499 2 157.399 26.7056 -5.55112e-17
500 1 134.495 151.511 -5.55112e-17
501 2 67.3753 110.497 -5.55112e-17
502 2 10.2189 89.175 -5.55112e-17
503 1 196.357 64.3926 -5.55112e-17
504 1 217.641 216.295 -5.55112e-17
505 1 20.5976 35.361 -5.55112e-17
506 1 210.664 142.789 -5.55112e-17
507 1 17.5978 73.6277 -5.55112e-17
508 1 104.444 162.587 -5.55112e-17
509 2 63.385 75.4489 -5.55112e-17
510 2 45.4228 12.7872 -5.55112e-17
511 1 106.125 6.66882 -5.55112e-17
512 2 59.8116 143.838 -5.55112e-17
513 1 149.38 204.104 -5.55112e-17
514 1 118.723 76.8536 -5.55112e-17
515 1 14.9832 88.897 -5.55112e-17
516 1 67.6737 100.36 -5.55112e-17
517 1 194.288 9.02049 -5.55112e-17
518 2 201.73 29.038 -5.55112e-17
519 1 89.0033 132.916 -5.55112e-17
520 2 188.557 30.4288 -5.55112e-17
521 1 139.025 186.976 -5.55112e-17
522 1 135.194 22.2588 -5.55112e-17
523 1 37.0498 72.1455 -5.55112e-17
524 1 175.078 141.528 -5.55112e-17
525 1 158.793 147.309 -5.55112e-17
526 1 195.886 98.0213 -5.55112e-17
527 1 200.385 108.982 -5.55112e-17
528 1 19.9838 202.791 -5.55112e-17
529 1 24.7187 6.68072 -5.55112e-17
530 1 183.23 218.799 -5.55112e-17
531 1 204.343 82.3759 -5.55112e-17
532 1 204.049 203.84 -5.55112e-17
533 1 215.099 64.7302 -5.55112e-17
534 1 198.71 54.8086 -5.55112e-17
535 1 147.151 142.055 -5.55112e-17
536 1 125.422 83.9271 -5.55112e-17
537 1 19.4379 30.6883 -5.55112e-17
538 1 13.6685 52.1171 -5.55112e-17
539 1 9.46983 214.692 -5.55112e-17
540 1 139.271 141.856 -5.55112e-17
541 1 35.1796 25.276 -5.55112e-17
542 1 127.057 56.8781 -5.55112e-17
543 1 204.896 179.7 -5.55112e-17
544 1 1.01718 68.0517 -5.55112e-17
545 1 86.986 176.626 -5.55112e-17
546 1 73.2848 54.1174 -5.55112e-17
547 1 125.789 8.69619 -5.55112e-17
548 1 175.422 218.04 -5.55112e-17
549 1 58.5203 169.541 -5.55112e-17
550 2 118.394 115.345 -5.55112e-17
551 2 27.5342 13.809 -5.55112e-17
552 2 183.783 3.50917 -5.55112e-17
553 1 90.1894 94.8919 -5.55112e-17
554 1 187.102 33.0823 -5.55112e-17
555 2 78.6874 162.007 -5.55112e-17
556 1 1.53376 209.607 -5.55112e-17
557 1 141.798 54.9203 -5.55112e-17
558 1 196.014 31.0488 -5.55112e-17
559 1 86.4048 179.235 -5.55112e-17
560 1 63.06 80.6489 -5.55112e-17
561 1 144.077 12.9001 -5.55112e-17
562 1 27.3842 10.6801 -5.55112e-17
563 2 26.3122 125.486 -5.55112e-17
564 1 106.096 105.308 -5.55112e-17
565 1 78.489 71.0083 -5.55112e-17
566 1 41.0283 172.193 -5.55112e-17
567 1 201.22 131.931 -5.55112e-17
568 1 24.1448 136.216 -5.55112e-17
569 1 70.4868 93.8026 -5.55112e-17
570 1 127.086 157.073 -5.55112e-17
571 1 90.2784 149.416 -5.55112e-17
572 1 75.5241 101.993 -5.55112e-17
573 1 21.6578 81.7501 -5.55112e-17
574 1 141.844 2.104 -5.55112e-17
575 1 122.365 98.1778 -5.55112e-17
576 1 180.046 14.3549 -5.55112e-17
577 1 158.876 167.486 -5.55112e-17
578 1 194.541 85.8695 -5.55112e-17
579 1 140.986 154.823 -5.55112e-17
580 1 129.361 191.501 -5.55112e-17
581 1 51.3289 56.3134 -5.55112e-17
582 1 39.7503 16.9287 -5.55112e-17
583 1 131.956 146.872 -5.55112e-17
584 2 128.704 15.5285 -5.55112e-17
585 1 201.85 213.764 -5.55112e-17
586 1 26.8226 16.8093 -5.55112e-17
587 1 164.532 28.2976 -5.55112e-17
588 1 88.8116 99.8506 -5.55112e-17
589 1 28.2172 177.055 -5.55112e-17
590 1 192.808 176.702 -5.55112e-17
591 1 44.8781 9.73218 -5.55112e-17
592 1 142.342 209.446 -5.55112e-17
593 1 188.485 192.32 -5.55112e-17
594 1 188.209 83.8894 -5.55112e-17
595 1 98.5719 210.83 -5.55112e-17
596 1 214.161 18.3034 -5.55112e-17
597 2 51.4707 118.137 -5.55112e-17
598 1 210.136 190.506 -5.55112e-17
599 1 189.571 118.174 -5.55112e-17
600 1 83.921 159.861 -5.55112e-17
601 1 191.877 66.7767 -5.55112e-17
602 1 118.868 5.81356 -5.55112e-17
603 1 110.461 180.963 -5.55112e-17
604 1 21.6591 87.1963 -5.55112e-17
605 2 186.492 66.3661 -5.55112e-17
606 1 129.028 102.065 -5.55112e-17
607 2 118.368 15.5632 -5.55112e-17
608 1 91.9482 178.744 -5.55112e-17
609 1 202.376 61.0505 -5.55112e-17
610 1 100.938 40.5247 -5.55112e-17
611 1 200.515 171.097 -5.55112e-17
612 1 195.238 22.5907 -5.55112e-17
613 1 85.3385 46.4964 -5.55112e-17
614 2 121.2 42.4342 -5.55112e-17
615 1 45.0765 98.7661 -5.55112e-17
616 1 5.62554 169.092 -5.55112e-17
617 1 156.009 81.7885 -5.55112e-17
618 1 44.252 74.0448 -5.55112e-17
619 1 104.419 8.86109 -5.55112e-17
620 1 9.43653 199.667 -5.55112e-17
621 1 45.7225 173.013 -5.55112e-17
622 1 198.974 14.1429 -5.55112e-17
623 1 20.735 41.6765 -5.55112e-17
624 1 41.8167 117.303 -5.55112e-17
625 1 108.054 181.635 -5.55112e-17
626 1 72.69 24.5063 -5.55112e-17
627 1 33.1855 197.098 -5.55112e-17
628 1 10.8147 116.042 -5.55112e-17
629 1 131.174 16.8824 -5.55112e-17
630 2 65.2786 78.4871 -5.55112e-17
631 1 47.6351 90.5789 -5.55112e-17
632 1 209.291 81.8317 -5.55112e-17
633 1 117.374 187.559 -5.55112e-17
634 1 182.602 211.04 -5.55112e-17
635 1 27.6114 208.172 -5.55112e-17
636 1 198.317 66.4257 -5.55112e-17
637 1 125.954 116.809 -5.55112e-17
638 1 173.901 153.426 -5.55112e-17
639 2 59.4534 214.052 -5.55112e-17
640 1 93.9412 193.924 -5.55112e-17
641 1 196.082 72.458 -5.55112e-17
642 1 99.7394 0.752437 -5.55112e-17
643 2 185.479 192.187 -5.55112e-17
644 1 39.3969 134.491 -5.55112e-17
645 1 144.281 190.623 -5.55112e-17
646 2 162.855 138.326 -5.55112e-17
647 1 190.263 129.388 -5.55112e-17
648 1 2.16827 73.3063 -5.55112e-17
649 2 125.746 215.062 -5.55112e-17
650 1 76.1219 45.0818 -5.55112e-17
651 1 72.2377 150.056 -5.55112e-17
652 1 18.4173 148.673 -5.55112e-17
653 1 128.749 179.514 -5.55112e-17
654 1 158.08 152.182 -5.55112e-17
655 2 72.8391 65.1752 -5.55112e-17
656 1 210.971 66.9083 -5.55112e-17
657 2 202.522 173.354 -5.55112e-17
658 1 211.858 99.4259 -5.55112e-17
659 2 179.186 89.1806 -5.55112e-17
660 1 0.195152 54.4243 -5.55112e-17
661 1 178.539 37.1363 -5.55112e-17
662 1 44.6537 80.5313 -5.55112e-17
663 1 84.3147 198.476 -5.55112e-17
664 1 16.7654 104.609 -5.55112e-17
665 1 0.104819 74.8681 -5.55112e-17
666 2 52.4546 30.9713 -5.55112e-17
667 1 140.016 81.5676 -5.55112e-17
668 2 197.995 197.879 -5.55112e-17
669 1 168.042 106.848 -5.55112e-17
670 1 110.714 134.726 -5.55112e-17
671 2 37.4344 144.209 -5.55112e-17
672 1 77.4192 89.4661 -5.55112e-17
673 1 212.518 65.1599 -5.55112e-17
674 1 66.1516 30.606 -5.55112e-17
675 1 98.4908 41.5487 -5.55112e-17
676 1 163.448 52.5904 -5.55112e-17
677 1 153.102 211.006 -5.55112e-17
678 1 49.4908 81.7039 -5.55112e-17
679 2 41.1459 191.815 -5.55112e-17
680 1 48.2119 138.155 -5.55112e-17
681 2 209.812 213.699 -5.55112e-17
682 1 172.244 59.353 -5.55112e-17
683 1 99.75 165.158 -5.55112e-17
684 1 11.7246 33.4656 -5.55112e-17
685 1 117.817 90.1159 -5.55112e-17
686 1 193.997 147.501 -5.55112e-17
687 1 177.483 193.265 -5.55112e-17
688 1 5.1203 161.175 -5.55112e-17
689 2 51.8081 105.392 -5.55112e-17
690 1 159.112 65.4696 -5.55112e-17
691 1 7.00076 100.923 -5.55112e-17
692 1 39.7262 121.434 -5.55112e-17
693 1 68.1232 155.122 -5.55112e-17
694 1 159.672 175.21 -5.55112e-17
695 1 37.8995 187.582 -5.55112e-17
696 1 159.244 13.1351 -5.55112e-17
697 1 129.835 198.771 -5.55112e-17
698 1 216.957 179.045 -5.55112e-17
699 1 125.887 195.409 -5.55112e-17
700 1 0.163148 36.6226 -5.55112e-17
701 1 11.3465 213.009 -5.55112e-17
702 1 32.6778 97.5655 -5.55112e-17
703 2 132.687 155.901 -5.55112e-17
704 1 65.5118 88.4977 -5.55112e-17
705 2 144.462 61.5667 -5.55112e-17
706 1 14.8659 86.2239 -5.55112e-17
707 1 23.4944 214.43 -5.55112e-17
708 1 191.046 157.177 -5.55112e-17
709 1 63.3188 204.429 -5.55112e-17
710 1 47.8896 60.1093 -5.55112e-17
711 1 150.361 107.375 -5.55112e-17
712 1 124.973 212.107 -5.55112e-17
713 1 158.253 117.125 -5.55112e-17
714 1 209.681 116.219 -5.55112e-17
715 1 88.2154 205.328 -5.55112e-17
716 1 74.5363 37.2188 -5.55112e-17
717 1 212.432 124.257 -5.55112e-17
718 1 7.13011 93.4648 -5.55112e-17
719 2 39.9301 77.0592 -5.55112e-17
720 1 18.48 55.6499 -5.55112e-17
721 1 184.517 17.2481 -5.55112e-17
722 1 125.659 193.101 -5.55112e-17
723 2 204.13 41.5569 -5.55112e-17
724 1 95.6623 186.657 -5.55112e-17
725 1 4.74775 189.563 -5.55112e-17
726 1 165.622 101.603 -5.55112e-17
727 1 92.3788 55.8142 -5.55112e-17
728 2 75.9219 70.0463 -5.55112e-17
729 1 33.0136 100.713 -5.55112e-17
730 1 54.1756 177.12 -5.55112e-17
731 1 63.3661 40.1491 -5.55112e-17
732 1 212.078 111.59 -5.55112e-17
733 1 186.682 111.864 -5.55112e-17
734 1 65.6703 154.368 -5.55112e-17
735 1 104.993 72.0297 -5.55112e-17
736 2 182.168 190.485 -5.55112e-17
737 1 2.2751 44.6755 -5.55112e-17
738 1 104.421 170.281 -5.55112e-17
739 1 198.424 135.355 -5.55112e-17
740 1 56.2988 113.796 -5.55112e-17
741 2 153.301 188.301 -5.55112e-17
742 1 45.0607 48.2419 -5.55112e-17
743 1 8.02404 144.463 -5.55112e-17
744 2 69.1602 167.557 -5.55112e-17
745 1 35.4668 61.0647 -5.55112e-17
746 1 96.7936 18.3747 -5.55112e-17
747 2 170.034 79.4279 -5.55112e-17
748 1 16.9275 48.5396 -5.55112e-17
749 1 127.318 141.605 -5.55112e-17
750 1 57.5521 51.1937 -5.55112e-17
751 1 18.0713 109.349 -5.55112e-17
752 1 181.479 9.01779 -5.55112e-17
753 1 136.675 190.996 -5.55112e-17
754 1 87.132 209.825 -5.55112e-17
755 1 161.703 133.511 -5.55112e-17
756 2 204.896 85.7516 -5.55112e-17
757 1 17.4462 102.414 -5.55112e-17
758 1 31.5434 46.5112 -5.55112e-17
759 1 100.703 182.252 -5.55112e-17
760 1 168.428 50.9818 -5.55112e-17
761 1 154.566 162.058 -5.55112e-17
762 1 48.1214 191.016 -5.55112e-17
763 1 155.145 11.6416 -5.55112e-17
764 2 175.781 44.8128 -5.55112e-17
765 1 142.193 118.25 -5.55112e-17
766 1 142.842 18.289 -5.55112e-17
767 1 137.682 57.463 -5.55112e-17
768 1 168.959 53.5207 -5.55112e-17
769 1 175.218 105.52 -5.55112e-17
770 2 38.8159 56.4922 -5.55112e-17
771 1 175.213 47.8009 -5.55112e-17
772 1 145.328 135.044 -5.55112e-17
773 1 158.79 180.088 -5.55112e-17
774 1 62.6794 117.504 -5.55112e-17
775 1 87.2922 48.7276 -5.55112e-17
776 1 211.162 9.73147 -5.55112e-17
777 1 155.594 118.673 -5.55112e-17
778 1 28.3015 160.474 -5.55112e-17
779 1 94.2142 153.473 -5.55112e-17
780 1 56.4068 11.5377 -5.55112e-17
781 1 215.699 117.628 -5.55112e-17
782 1 168.995 118.317 -5.55112e-17
783 1 180.733 119.121 -5.55112e-17
784 2 54.9493 6.75636 -5.55112e-17
785 1 183.492 113.267 -5.55112e-17
786 1 203.588 53.0112 -5.55112e-17
787 1 72.5272 22.2542 -5.55112e-17
788 1 166.738 23.063 -5.55112e-17
789 2 195.057 116.779 -5.55112e-17
790 1 196.46 87.7057 -5.55112e-17
791 2 14.7699 96.7537 -5.55112e-17
792 2 167.074 172.029 -5.55112e-17
793 2 175.696 24.2411 -5.55112e-17
794 1 202.619 84.2593 -5.55112e-17
795 1 54.1751 95.2743 -5.55112e-17
796 1 149.354 191.295 -5.55112e-17
797 1 210.115 166.06 -5.55112e-17
798 2 48.3456 110.169 -5.55112e-17
799 2 184.623 79.5221 -5.55112e-17
800 2 182.779 168.668 -5.55112e-17
801 1 163.289 135.616 -5.55112e-17
802 1 126.508 36.4799 -5.55112e-17
803 1 32.8483 74.0618 -5.55112e-17
804 2 183.836 155.527 -5.55112e-17
805 1 131.346 150.964 -5.55112e-17
806 1 48.626 19.8598 -5.55112e-17
807 2 11.2215 143.706 -5.55112e-17
808 1 214.604 129.201 -5.55112e-17
809 2 58.1485 133.254 -5.55112e-17
810 1 218.42 9.21658 -5.55112e-17
811 1 126.562 168.447 -5.55112e-17
812 1 151.121 50.3274 -5.55112e-17
813 2 62.0556 47.1004 -5.55112e-17
814 1 14.7192 18.724 -5.55112e-17
815 1 198.514 30.2533 -5.55112e-17
816 1 25.4448 156.703 -5.55112e-17
817 1 129.425 210.336 -5.55112e-17
818 1 156.547 110.345 -5.55112e-17
819 1 212.472 52.5016 -5.55112e-17
820 1 191.767 64.35 -5.55112e-17
821 1 201.127 139.37 -5.55112e-17
822 2 65.3035 96.1164 -5.55112e-17
823 2 58.0963 0.726727 -5.55112e-17
824 1 9.74516 70.509 -5.55112e-17
825 1 2.68614 31.0988 -5.55112e-17
826 1 101.872 118.423 -5.55112e-17
827 1 23.1882 218.848 -5.55112e-17
828 1 87.6022 7.19449 -5.55112e-17
829 1 171.829 171.057 -5.55112e-17
830 1 187.718 12.7583 -5.55112e-17
831 1 37.5454 199.573 -5.55112e-17
832 1 9.75897 26.8776 -5.55112e-17
833 1 64.1076 215.818 -5.55112e-17
834 1 98.103 134.374 -5.55112e-17
835 1 80.5921 72.3916 -5.55112e-17
836 1 63.072 98.3144 -5.55112e-17
837 1 40.2149 11.5647 -5.55112e-17
838 1 42.3786 82.1299 -5.55112e-17
839 2 190.844 56.7543 -5.55112e-17
840 1 93.946 59.9194 -5.55112e-17
841 2 88.8645 65.8312 -5.55112e-17
842 1 73.7141 45.2575 -5.55112e-17
843 2 205.954 68.6619 -5.55112e-17
844 1 180.976 102.611 -5.55112e-17
845 1 114.45 6.50622 -5.55112e-17
846 1 14.9395 34.1382 -5.55112e-17
847 1 217.65 132.58 -5.55112e-17
848 1 189.169 43.006 -5.55112e-17
849 1 119.043 67.8398 -5.55112e-17
850 1 109.556 0.188158 -5.55112e-17
851 1 95.5327 210.669 -5.55112e-17
852 1 215.095 69.1115 -5.55112e-17
853 1 86.101 196.841 -5.55112e-17
854 1 211.935 18.823 -5.55112e-17
855 1 139.062 160.333 -5.55112e-17
856 1 197.888 104.964 -5.55112e-17