ITEM: TIMESTEP
0
ITEM: NUMBER OF ATOMS
7200
ITEM: BOX BOUNDS xy xz yz pp pp pp
0.0000000000000000e+00 2.1900000000000000e+02 0.0000000000000000e+00
0.0000000000000000e+00 2.1900000000000000e+02 0.0000000000000000e+00
-3.6499999999999999e-01 3.6499999999999999e-01 0.0000000000000000e+00
ITEM: ATOMS id type x y z
1 1 195.287 11.4359 -5.55112e-17
2 1 28.5462 31.5838 -5.55112e-17
3 1 83.8069 191.939 -5.55112e-17
4 1 29.4873 174.989 -5.55112e-17
5 1 211.818 131.177 -5.55112e-17
6 1 156.074 46.5533 -5.55112e-17
7 1 209.737 162.121 -5.55112e-17
8 2 15.6948 199.766 -5.55112e-17
9 1 63.2041 108.379 -5.55112e-17
10 2 176.441 113.7 -5.55112e-17
11 1 186.58 159.602 -5.55112e-17
12 1 153.196 135.758 -5.55112e-17
13 2 41.5225 68.9238 -5.55112e-17
14 1 58.3178 186.062 -5.55112e-17
15 1 170.658 203.278 -5.55112e-17
16 2 133.215 87.9037 -5.55112e-17
17 1 116.732 172.474 -5.55112e-17
18 2 164.226 67.0428 -5.55112e-17
19 1 25.8176 72.9533 -5.55112e-17
20 1 107.323 57.1667 -5.55112e-17
21 1 131.796 8.65587 -5.55112e-17
22 2 149.499 83.9843 -5.55112e-17
23 2 188.164 75.8728 -5.55112e-17
24 1 99.352 113.587 -5.55112e-17
25 1 204.198 171.767 -5.55112e-17
26 2 86.9141 197.619 -5.55112e-17
27 1 87.4424 69.0523 -5.55112e-17
28 2 45.8627 103.384 -5.55112e-17
29 1 200.304 21.7027 -5.55112e-17
30 1 30.9229 105.097 -5.55112e-17
31 1 18.016 67.9687 -5.55112e-17
32 1 55.6609 168.228 -5.55112e-17
33 1 45.93 50.1685 -5.55112e-17
34 1 167.248 105.104 -5.55112e-17
35 1 38.1967 212.495 -5.55112e-17
36 1 206.475 155.31 -5.55112e-17
37 2 107.207 104.595 -5.55112e-17
38 1 79.8411 208.727 -5.55112e-17
39 1 4.43619 36.2893 -5.55112e-17
40 1 120.608 86.9813 -5.55112e-17
41 1 194.532 52.4731 -5.55112e-17
42 1 142.281 186.435 -5.55112e-17
43 1 146.848 181.254 -5.55112e-17
44 1 60.4758 86.8579 -5.55112e-17
45 1 22.6979 99.9226 -5.55112e-17
46 1 27.0909 105.557 -5.55112e-17
47 1 95.3089 211.405 -5.55112e-17
48 2 167.267 77.2393 -5.55112e-17
49 1 47.0951 90.1547 -5.55112e-17
50 1 112.45 203.223 -5.55112e-17
51 1 87.7849 80.7567 -5.55112e-17
52 1 172.217 150.152 -5.55112e-17
53 1 73.9208 142.276 -5.55112e-17
54 1 31.1949 181.619 -5.55112e-17
55 1 179.817 32.944 -5.55112e-17
56 1 122.795 74.7422 -5.55112e-17
57 2 133.054 4.07956 -5.55112e-17
58 1 83.5225 129.692 -5.55112e-17
59 1 218.561 184.964 -5.55112e-17
60 2 18.5105 150.367 -5.55112e-17
61 2 167.896 198.446 -5.55112e-17
62 1 105.072 140.264 -5.55112e-17
63 1 158.963 85.5357 -5.55112e-17
64 1 124.114 160.455 -5.55112e-17
65 1 130.822 66.6325 -5.55112e-17
66 1 82.8066 137.843 -5.55112e-17
67 1 167.337 102.55 -5.55112e-17
68 1 2.47822 180.705 -5.55112e-17
69 1 54.2004 67.8887 -5.55112e-17
70 1 91.9254 145.607 -5.55112e-17
71 1 180.496 81.7808 -5.55112e-17
72 1 217.946 100.331 -5.55112e-17
73 1 211.584 93.8955 -5.55112e-17
74 1 34.9542 13.9162 -5.55112e-17
75 2 63.5922 111.841 -5.55112e-17
76 1 166.462 88.9214 -5.55112e-17
77 1 4.8427 196.496 -5.55112e-17
78 1 137.277 199.218 -5.55112e-17
79 2 150.708 211.188 -5.55112e-17
80 1 46.8423 158.961 -5.55112e-17
81 1 73.4498 149.474 -5.55112e-17
82 1 166.001 84.9029 -5.55112e-17
83 2 37.9102 183.916 -5.55112e-17
84 1 130.525 130.652 -5.55112e-17
85 1 46.6489 19.4493 -5.55112e-17
86 1 196.798 41.7602 -5.55112e-17
87 1 182.475 65.2996 -5.55112e-17
88 1 61.2952 172.714 -5.55112e-17
89 2 189.277 120.168 -5.55112e-17
90 2 151.128 170.886 -5.55112e-17
91 1 27.2229 57.8758 -5.55112e-17
92 2 214.588 124.829 -5.55112e-17
93 1 94.6689 78.3853 -5.55112e-17
94 2 142.433 117.357 -5.55112e-17
95 1 65.6656 33.3455 -5.55112e-17
96 1 16.336 101.273 -5.55112e-17
97 1 81.9148 77.8677 -5.55112e-17
98 1 70.3734 115.533 -5.55112e-17
99 1 95.8981 187.961 -5.55112e-17
100 1 72.8788 83.2796 -5.55112e-17
101 1 71.5426 42.4868 -5.55112e-17
102 1 35.917 171.831 -5.55112e-17
103 1 180.024 188.501 -5.55112e-17
104 1 218.74 169.78 -5.55112e-17
105 1 208.797 87.54 -5.55112e-17
106 1 139.143 4.62926 -5.55112e-17
107 2 129.274 191.759 -5.55112e-17
108 1 54.4561 73.1758 -5.55112e-17
109 1 93.4212 47.8976 -5.55112e-17
110 1 82.1799 210.626 -5.55112e-17
111 1 157.913 35.0609 -5.55112e-17
112 1 94.3865 168.02 -5.55112e-17
113 1 211.46 19.2011 -5.55112e-17
114 1 186.716 129.305 -5.55112e-17
115 1 135.392 67.9813 -5.55112e-17
116 2 60.952 4.63372 -5.55112e-17
117 1 217.584 90.6946 -5.55112e-17
118 1 102.83 87.2907 -5.55112e-17
119 2 102.977 162.824 -5.55112e-17
120 1 59.7691 213.345 -5.55112e-17
121 1 94.5812 80.7687 -5.55112e-17
122 1 26.017 65.9455 -5.55112e-17
123 1 30.4914 164.412 -5.55112e-17
124 1 159.246 131.564 -5.55112e-17
125 1 55.2464 146.44 -5.55112e-17
126 1 110.742 148.136 -5.55112e-17
127 1 44.0916 127.953 -5.55112e-17
128 1 149.16 60.2459 -5.55112e-17
129 1 134.604 192.017 -5.55112e-17
130 1 212.115 98.7041 -5.55112e-17
131 1 33.5266 36.1263 -5.55112e-17
132 2 164.303 177.03 -5.55112e-17
133 1 150.051 91.9933 -5.55112e-17
134 1 183.593 43.9248 -5.55112e-17
135 1 178.585 151.276 -5.55112e-17
136 1 188.953 112.449 -5.55112e-17
137 1 205.666 174.268 -5.55112e-17
138 1 111.301 3.23881 -5.55112e-17
139 1 128.633 117.52 -5.55112e-17
140 2 118.318 142.973 -5.55112e-17
141 1 0.777592 38.8067 -5.55112e-17
142 2 8.97107 161.019 -5.55112e-17
143 1 196.674 114.203 -5.55112e-17
144 2 217.39 214.577 -5.55112e-17
145 1 32.3324 178.953 -5.55112e-17
146 1 31.7362 173.923 -5.55112e-17
147 1 92.2722 207.148 -5.55112e-17
148 1 102.461 174.836 -5.55112e-17
149 1 32.2736 6.44486 -5.55112e-17
150 1 121.903 49.6093 -5.55112e-17
151 1 84.6241 5.92905 -5.55112e-17
152 1 216.862 29.8278 -5.55112e-17
153 2 207.884 31.8894 -5.55112e-17
154 1 209.032 67.899 -5.55112e-17
155 1 172.143 8.61973 -5.55112e-17
156 2 80.2852 120.373 -5.55112e-17
157 1 174.583 103.227 -5.55112e-17
158 1 15.6072 139.453 -5.55112e-17
159 1 64.3735 19.2175 -5.55112e-17
160 1 180.666 0.919793 -5.55112e-17
161 1 105.42 119.896 -5.55112e-17
162 1 157.457 158.576 -5.55112e-17
163 1 9.25871 124.16 -5.55112e-17
164 1 214.86 28.5524 -5.55112e-17
165 1 75.4032 43.9656 -5.55112e-17
166 2 71.9697 212.121 -5.55112e-17
167 1 194.906 175.032 -5.55112e-17
168 1 15.3186 72.6965 -5.55112e-17
169 1 12.2719 68.1242 -5.55112e-17
170 1 47.2464 29.3188 -5.55112e-17
171 1 119.511 213.113 -5.55112e-17
172 1 163.132 107.705 -5.55112e-17
173 1 81.3241 172.702 -5.55112e-17
174 1 117.255 111.925 -5.55112e-17
175 2 142.464 25.7311 -5.55112e-17
176 1 29.9167 189.016 -5.55112e-17
177 2 165.406 188.989 -5.55112e-17
178 1 42.8114 207.964 -5.55112e-17
179 1 25.468 126.82 -5.55112e-17
180 1 142.543 135.658 -5.55112e-17
181 1 41.7063 193.84 -5.55112e-17
182 2 80.4099 34.3046 -5.55112e-17
183 1 138.589 113.94 -5.55112e-17
184 1 23.8683 143.951 -5.55112e-17
185 2 29.7155 38.9761 -5.55112e-17
186 2 139.205 96.5867 -5.55112e-17
187 1 84.8203 127.442 -5.55112e-17
188 1 91.0456 160.725 -5.55112e-17
189 1 166.626 49.8404 -5.55112e-17
190 2 165.568 21.8206 -5.55112e-17
191 1 59.9998 94.8331 -5.55112e-17
192 2 125.086 185.443 -5.55112e-17
193 2 121.173 200.812 -5.55112e-17
194 1 136.362 96.0712 -5.55112e-17
195 1 63.7967 28.4833 -5.55112e-17
196 1 73.9259 42.1251 -5.55112e-17
197 1 56.7758 138.798 -5.55112e-17
198 2 112.867 149.607 -5.55112e-17
199 1 164.329 29.5995 -5.55112e-17
200 1 200.088 79.6375 -5.55112e-17
201 2 7.12339 60.7485 -5.55112e-17
202 1 122.307 42.7453 -5.55112e-17
203 1 215.672 40.8164 -5.55112e-17
204 1 61.173 198.4 -5.55112e-17
205 2 178.95 95.7369 -5.55112e-17
206 1 148.147 171.083 -5.55112e-17
207 1 122.879 203.224 -5.55112e-17
208 1 137.679 66.5094 -5.55112e-17
209 1 120.905 100.249 -5.55112e-17
210 1 190.881 211.818 -5.55112e-17
211 2 84.9599 70.8063 -5.55112e-17
212 1 112.152 90.9823 -5.55112e-17
213 1 37.0629 196.112 -5.55112e-17
214 1 41.1457 15.7927 -5.55112e-17
215 1 167.102 37.5276 -5.55112e-17
216 1 144.116 15.6869 -5.55112e-17
217 1 28.3438 8.97695 -5.55112e-17
218 2 193.823 155.924 -5.55112e-17
219 1 35.9164 37.4141 -5.55112e-17
220 2 165.046 203.923 -5.55112e-17
221 1 79.6393 8.72072 -5.55112e-17
222 1 130.631 107.965 -5.55112e-17
223 1 79.7739 103.409 -5.55112e-17
224 2 54.6009 207.725 -5.55112e-17
225 1 62.0385 39.7291 -5.55112e-17
226 1 88.4171 195.133 -5.55112e-17
227 2 159.208 213.954 -5.55112e-17
228 1 44.3629 53.1304 -5.55112e-17
229 1 178.606 127.352 -5.55112e-17
230 1 3.93722 149.08 -5.55112e-17
231 1 74.1417 48.9489 -5.55112e-17
232 1 184.182 135.292 -5.55112e-17
233 1 124.28 41.1773 -5.55112e-17
234 1 21.2623 126.686 -5.55112e-17
235 1 170.12 135.148 -5.55112e-17
236 1 172.882 33.2203 -5.55112e-17
237 1 47.7362 95.8034 -5.55112e-17
238 1 169.229 200.789 -5.55112e-17
239 2 191.364 41.0974 -5.55112e-17
240 1 103.972 142.361 -5.55112e-17
241 2 14.3956 161.496 -5.55112e-17
242 2 31.2663 102.145 -5.55112e-17
243 2 120.206 166.852 -5.55112e-17
244 1 38.2708 36.6191 -5.55112e-17
245 1 59.7779 195.807 -5.55112e-17
246 1 44.7563 206.744 -5.55112e-17
247 1 209.726 61.0237 -5.55112e-17
248 1 13.2401 30.0092 -5.55112e-17
249 1 212.503 63.8668 -5.55112e-17
250 2 33.0467 63.1101 -5.55112e-17
251 1 136.136 38.8159 -5.55112e-17
252 1 26.5727 179.382 -5.55112e-17
253 1 104.697 199.774 -5.55112e-17
254 2 208.525 15.1199 -5.55112e-17
255 1 7.39036 63.5174 -5.55112e-17
256 1 192.372 99.234 -5.55112e-17
257 1 129.091 42.2604 -5.55112e-17
258 2 103.414 60.2609 -5.55112e-17
259 1 70.5258 121.199 -5.55112e-17
260 1 51.2918 89.5341 -5.55112e-17
261 1 192.534 133.893 -5.55112e-17
262 1 121.727 23.791 -5.55112e-17
263 1 171.024 138.146 -5.55112e-17
264 1 63.5108 190.232 -5.55112e-17
265 1 154.712 107.402 -5.55112e-17
266 1 153.887 179.143 -5.55112e-17
267 1 165.713 82.3919 -5.55112e-17
268 1 97.6773 87.1141 -5.55112e-17
269 1 14.5184 58.2986 -5.55112e-17
270 1 75.856 195.621 -5.55112e-17
271 1 64.9425 14.2296 -5.55112e-17
272 1 214.504 116.433 -5.55112e-17
273 1 53.6568 181.639 -5.55112e-17
274 2 139.358 193.692 -5.55112e-17
275 1 119.255 140.138 -5.55112e-17
276 2 40.4758 38.9992 -5.55112e-17
277 2 69.3608 138.265 -5.55112e-17
278 1 201.628 53.2693 -5.55112e-17
279 2 150.882 124.969 -5.55112e-17
280 1 137.395 23.6027 -5.55112e-17
281 1 56.604 114.035 -5.55112e-17
282 1 164.145 70.1898 -5.55112e-17
283 1 118.203 106.627 -5.55112e-17
284 1 143.79 201.958 -5.55112e-17
285 1 22.6278 3.96884 -5.55112e-17
286 2 151.463 130.476 -5.55112e-17
287 1 63.0395 10.1493 -5.55112e-17
288 1 31.0938 72.0143 -5.55112e-17
289 1 110.508 184.993 -5.55112e-17
290 1 189.791 21.3061 -5.55112e-17
291 1 164.821 56.3831 -5.55112e-17
292 2 85.1403 209.736 -5.55112e-17
293 2 148.702 200.61 -5.55112e-17
294 1 171.843 163.117 -5.55112e-17
295 1 148.555 137.416 -5.55112e-17
296 1 75.7459 158.867 -5.55112e-17
297 1 102.971 68.9173 -5.55112e-17
298 1 82.1134 18.5532 -5.55112e-17
299 1 3.86199 203.265 -5.55112e-17
300 2 13.6405 26.9718 -5.55112e-17
301 1 104.441 112.224 -5.55112e-17
302 1 218.291 127.864 -5.55112e-17
303 2 155.539 161.656 -5.55112e-17
304 2 112.195 64.0625 -5.55112e-17
305 1 8.23191 85.7165 -5.55112e-17
306 1 115.772 206.507 -5.55112e-17
307 1 11.1039 28.5082 -5.55112e-17
308 1 201.374 100.35 -5.55112e-17
309 2 122.793 0.56064 -5.55112e-17
310 1 54.7804 121.55 -5.55112e-17
311 1 168.698 216.353 -5.55112e-17
312 1 149.092 21.0288 -5.55112e-17
313 2 134.041 145.038 -5.55112e-17
314 1 123.77 115.596 -5.55112e-17
315 1 97.8805 29.2716 -5.55112e-17
316 1 60.3093 15.7613 -5.55112e-17
317 1 133.512 177.602 -5.55112e-17
318 1 56.197 190.124 -5.55112e-17
319 1 70.4332 187.325 -5.55112e-17
320 1 150.375 159.74 -5.55112e-17
321 1 9.52403 15.9036 -5.55112e-17
322 1 165.108 135.613 -5.55112e-17
323 1 167.437 134.557 -5.55112e-17
324 1 166.535 215.171 -5.55112e-17
325 1 132.838 0.699372 -5.55112e-17
326 1 75.7924 37.3584 -5.55112e-17
327 2 216.025 206.649 -5.55112e-17
328 1 27.5887 206.269 -5.55112e-17
329 2 69.8854 82.9212 -5.55112e-17
330 1 9.75643 214.925 -5.55112e-17
331 1 187.032 99.4371 -5.55112e-17
332 2 40.7206 146.161 -5.55112e-17
333 1 78.8119 18.5533 -5.55112e-17
334 1 130.381 44.2111 -5.55112e-17
335 1 106.87 47.6706 -5.55112e-17
336 1 187.234 44.6269 -5.55112e-17
337 1 115.527 114.169 -5.55112e-17
338 1 77.4066 182.492 -5.55112e-17
339 1 40.4324 128.295 -5.55112e-17
340 1 92.3265 97.6931 -5.55112e-17
341 1 23.4617 73.0928 -5.55112e-17
342 1 153.701 124.783 -5.55112e-17
343 1 51.427 22.8604 -5.55112e-17
344 1 97.8083 210.274 -5.55112e-17
345 1 32.4855 147.117 -5.55112e-17
346 1 21.7815 206.007 -5.55112e-17
347 1 110.394 134.026 -5.55112e-17
348 1 215.84 45.3372 -5.55112e-17
349 1 56.7815 200.383 -5.55112e-17
350 2 144.985 105.04 -5.55112e-17
351 1 209.094 131.304 -5.55112e-17
352 1 84.4049 90.0841 -5.55112e-17
353 1 20.5736 87.997 -5.55112e-17
354 1 98.7387 38.2323 -5.55112e-17
355 1 72.5526 33.0333 -5.55112e-17
356 1 217.729 125.561 -5.55112e-17
357 1 28.3091 157.047 -5.55112e-17
358 1 33.8859 56.3583 -5.55112e-17
359 1 113.444 35.5602 -5.55112e-17
360 1 144.938 45.4877 -5.55112e-17
361 1 159.695 3.13512 -5.55112e-17
362 1 130.701 21.9288 -5.55112e-17
363 1 27.2194 63.2819 -5.55112e-17
364 2 156.483 198.314 -5.55112e-17
365 1 0.87877 178.146 -5.55112e-17
366 1 199.405 65.6035 -5.55112e-17
367 1 88.2568 110.987 -5.55112e-17
368 1 9.11075 128.327 -5.55112e-17
369 2 39.6338 191.68 -5.55112e-17
370 1 49.4114 120.755 -5.55112e-17
371 1 52.7015 196.292 -5.55112e-17
372 2 7.03499 145.234 -5.55112e-17
373 2 66.0823 163.951 -5.55112e-17
374 1 96.5608 106.745 -5.55112e-17
375 1 30.4333 74.4354 -5.55112e-17
376 1 132.47 125.019 -5.55112e-17
377 1 181.736 6.56347 -5.55112e-17
378 1 84.7173 92.4851 -5.55112e-17
379 1 179.899 39.9327 -5.55112e-17
380 1 186.239 210.557 -5.55112e-17
381 1 114.411 154.191 -5.55112e-17
382 1 138.159 34.061 -5.55112e-17
383 1 58.182 108.544 -5.55112e-17
384 1 126.895 112.587 -5.55112e-17
385 1 15.5057 146.42 -5.55112e-17
386 2 50.4433 181.336 -5.55112e-17
387 1 25.998 191.712 -5.55112e-17
388 1 91.9006 28.7865 -5.55112e-17
389 1 134.842 97.9024 -5.55112e-17
390 2 10.2425 138.095 -5.55112e-17
391 2 35.992 100.165 -5.55112e-17
392 1 69.9283 47.9389 -5.55112e-17
393 1 3.54228 200.986 -5.55112e-17
394 1 165.435 198.986 -5.55112e-17
395 1 188.385 131.673 -5.55112e-17
396 1 29.7317 16.4794 -5.55112e-17
397 1 65.8749 181.963 -5.55112e-17
398 1 155.354 6.68912 -5.55112e-17
399 1 69.1689 207.865 -5.55112e-17
400 1 98.1677 191.45 -5.55112e-17
401 1 83.9019 27.4223 -5.55112e-17
402 2 99.4292 52.5318 -5.55112e-17
403 1 207.098 20.0059 -5.55112e-17
404 1 185.544 170.956 -5.55112e-17
405 1 66.3955 65.1077 -5.55112e-17
406 1 23.6149 163.086 -5.55112e-17
407 2 173.439 47.2248 -5.55112e-17
408 1 24.9646 154.01 -5.55112e-17
409 1 199.433 29.1272 -5.55112e-17
410 1 134.141 168.022 -5.55112e-17
411 1 207.627 212.213 -5.55112e-17
412 1 201.175 183.15 -5.55112e-17
413 1 56.2853 118.956 -5.55112e-17
414 1 91.5061 34.362 -5.55112e-17
415 1 97.358 164.013 -5.55112e-17
416 1 206.22 214.372 -5.55112e-17
417 1 179.294 75.374 -5.55112e-17
418 2 47.2833 164.311 -5.55112e-17
419 1 22.6127 198.921 -5.55112e-17
420 2 119.039 14.5024 -5.55112e-17
421 1 115.731 118.825 -5.55112e-17
422 1 29.3972 67.8368 -5.55112e-17
423 2 211.484 120.274 -5.55112e-17
424 1 168.277 175.963 -5.55112e-17
425 1 19.6002 164.823 -5.55112e-17
426 1 171.705 35.404 -5.55112e-17
427 1 128.656 199.422 -5.55112e-17
428 1 188.104 105.69 -5.55112e-17
429 1 141.536 152.191 -5.55112e-17
430 1 32.3741 83.5183 -5.55112e-17
431 1 13.0363 9.64482 -5.55112e-17
432 1 48.3391 4.04589 -5.55112e-17
433 1 140.503 101.516 -5.55112e-17
434 1 35.5858 110.803 -5.55112e-17
435 1 79.536 100.211 -5.55112e-17
436 1 94.8187 216.151 -5.55112e-17
437 1 44.3279 15.1764 -5.55112e-17
438 2 100.374 67.4354 -5.55112e-17
439 1 216.216 70.3153 -5.55112e-17
440 1 108.653 91.9044 -5.55112e-17
441 1 107.379 50.0096 -5.55112e-17
442 1 201.128 153.565 -5.55112e-17
443 1 3.29401 124.983 -5.55112e-17
444 1 203.532 38.5135 -5.55112e-17
445 1 3.60963 76.7619 -5.55112e-17
446 1 211.845 166.126 -5.55112e-17
447 1 145.74 204.025 -5.55112e-17
448 1 67.5532 206.132 -5.55112e-17
449 1 127.16 25.3465 -5.55112e-17
450 1 59.8044 127.458 -5.55112e-17
451 1 181.934 79.7086 -5.55112e-17
452 1 108.635 205.825 -5.55112e-17
453 1 74.7884 123.777 -5.55112e-17
454 1 84.426 122.727 -5.55112e-17
455 1 87.4136 152.843 -5.55112e-17
456 1 192.929 210.4 -5.55112e-17
457 1 137.736 93.5568 -5.55112e-17
458 1 106.308 197.824 -5.55112e-17
459 1 56.2507 177.334 -5.55112e-17
460 1 140.31 184.856 -5.55112e-17
461 1 208.844 38.5912 -5.55112e-17
462 1 61.6942 35.5197 -5.55112e-17
463 1 179.415 10.7076 -5.55112e-17
464 1 43.7954 106.291 -5.55112e-17
465 1 116.799 97.135 -5.55112e-17
466 1 183.086 126.245 -5.55112e-17
467 1 29.075 112.412 -5.55112e-17
468 1 133.199 34.2876 -5.55112e-17
469 1 130.331 63.9442 -5.55112e-17
470 1 178.108 34.803 -5.55112e-17
471 1 218.43 204.937 -5.55112e-17
472 1 78.5007 195.855 -5.55112e-17
473 1 36.889 10.1692 -5.55112e-17
474 1 67.6175 31.6049 -5.55112e-17
475 1 137.257 84.4341 -5.55112e-17
476 2 158.152 95.5898 -5.55112e-17
477 1 47.2288 73.3383 -5.55112e-17
478 1 174.97 196.678 -5.55112e-17
479 1 139.458 83.0109 -5.55112e-17
480 1 84.8385 136.474 -5.55112e-17
481 1 19.7684 13.1992 -5.55112e-17
482 1 87.867 98.6117 -5.55112e-17
483 1 3.96301 85.9752 -5.55112e-17
484 2 150.001 73.1972 -5.55112e-17
485 1 37.466 200.019 -5.55112e-17
486 1 195.798 218.27 -5.55112e-17
487 1 87.7355 140.412 -5.55112e-17
488 1 38.6312 67.7743 -5.55112e-17
489 1 145.28 208.488 -5.55112e-17
490 1 146.322 19.5732 -5.55112e-17
491 1 212.227 28.6484 -5.55112e-17
492 1 26.3348 92.0318 -5.55112e-17
493 1 21.6226 174.744 -5.55112e-17
494 1 0.330439 216.765 -5.55112e-17
495 1 49.6586 91.3882 -5.55112e-17
496 2 97.6191 119.32 -5.55112e-17
497 1 80.1635 65.5335 -5.55112e-17
498 1 17.6311 34.9759 -5.55112e-17
499 2 190.968 4.76224 -5.55112e-17
500 1 2.366 2.91144 -5.55112e-17
501 2 168.884 139.932 -5.55112e-17
502 2 115.537 202.807 -5.55112e-17
503 1 156.323 43.1243 -5.55112e-17
504 1 71.0332 64.6147 -5.55112e-17
505 1 137.746 76.7851 -5.55112e-17
506 1 45.4263 94.4573 -5.55112e-17
507 1 157.842 50.6608 -5.55112e-17
508 1 144.148 166.661 -5.55112e-17
509 2 171.793 12.6925 -5.55112e-17
510 2 204.118 153.476 -5.55112e-17
511 1 96.1054 174.483 -5.55112e-17
512 2 129.306 53.112 -5.55112e-17
513 1 42.6132 123.822 -5.55112e-17
514 1 94.4104 134.003 -5.55112e-17
515 1 190.459 80.3466 -5.55112e-17
516 1 67.6412 114.767 -5.55112e-17
517 1 191.389 183.168 -5.55112e-17
518 2 30.7707 94.2862 -5.55112e-17
519 1 88.5039 85.6567 -5.55112e-17
520 2 151.119 55.4065 -5.55112e-17
521 1 84.7788 104.94 -5.55112e-17
522 1 208.75 190.996 -5.55112e-17
523 1 34.5104 179.568 -5.55112e-17
524 1 5.79547 89.6864 -5.55112e-17
525 1 51.5302 206.685 -5.55112e-17
526 1 125.398 145.53 -5.55112e-17
527 1 86.7682 103.014 -5.55112e-17
528 1 147.86 218.8 -5.55112e-17
529 1 78.4999 21.073 -5.55112e-17
530 1 205.764 33.8698 -5.55112e-17
531 1 216.143 2.43565 -5.55112e-17
532 1 156.928 90.6703 -5.55112e-17
533 1 154.754 154.237 -5.55112e-17
534 1 88.8306 189.872 -5.55112e-17
535 1 90.7132 62.4733 -5.55112e-17
536 1 196.046 206.792 -5.55112e-17
537 1 111.176 200.673 -5.55112e-17
538 1 53.3512 113.597 -5.55112e-17
539 1 183.888 201.17 -5.55112e-17
540 1 146.459 165.631 -5.55112e-17
541 1 10.6521 79.337 -5.55112e-17
542 1 188.723 148.36 -5.55112e-17
543 1 80.4715 125.348 -5.55112e-17
544 1 12.9113 56.0724 -5.55112e-17
545 1 79.0011 166.841 -5.55112e-17
546 1 139.541 85.4417 -5.55112e-17
547 1 158.197 168.401 -5.55112e-17
548 1 21.578 63.9237 -5.55112e-17
549 1 215.598 53.4421 -5.55112e-17
550 2 210.478 133.846 -5.55112e-17
551 2 110.39 8.2703 -5.55112e-17
552 2 180.842 200.287 -5.55112e-17
553 1 30.6152 212.242 -5.55112e-17
554 1 141.827 22.2534 -5.55112e-17
555 2 97.5941 215.758 -5.55112e-17
556 1 143.929 90.2395 -5.55112e-17
557 1 68.8003 70.8695 -5.55112e-17
558 1 29.9042 167.139 -5.55112e-17
559 1 115.072 6.96661 -5.55112e-17
560 1 194.81 133.847 -5.55112e-17
561 1 45.1229 58.0501 -5.55112e-17
562 1 106.479 59.6655 -5.55112e-17
563 2 141.827 31.2673 -5.55112e-17
564 1 184.169 31.3195 -5.55112e-17
565 1 16.1451 24.4153 -5.55112e-17
566 1 194.073 182.603 -5.55112e-17
567 1 17.3318 12.4601 -5.55112e-17
568 1 46.4708 34.6953 -5.55112e-17
569 1 132.313 97.4109 -5.55112e-17
570 1 127.656 98.0595 -5.55112e-17
571 1 207.684 143.366 -5.55112e-17
572 1 69.3516 105.501 -5.55112e-17
573 1 71.0811 189.922 -5.55112e-17
574 1 138.12 206.932 -5.55112e-17
575 1 205.241 165.335 -5.55112e-17
576 1 142.158 200.274 -5.55112e-17
577 1 79.3339 75.9348 -5.55112e-17
578 1 186.705 117.873 -5.55112e-17
579 1 27.2402 50.3105 -5.55112e-17
580 1 125.226 75.337 -5.55112e-17
581 1 169.816 108.805 -5.55112e-17
582 1 146.249 32.7146 -5.55112e-17
583 1 17.8341 17.3451 -5.55112e-17
584 2 9.1753 187.341 -5.55112e-17
585 1 125.817 162.822 -5.55112e-17
586 1 171.984 79.8828 -5.55112e-17
587 1 60.134 74.0256 -5.55112e-17
588 1 20.0134 107.051 -5.55112e-17
589 1 45.1472 209.144 -5.55112e-17
590 1 158.829 121.857 -5.55112e-17
591 1 117.766 7.21435 -5.55112e-17
592 1 136.173 71.7989 -5.55112e-17
593 1 50.4042 144.117 -5.55112e-17
594 1 196.381 122.091 -5.55112e-17
595 1 58.029 103.414 -5.55112e-17
596 1 5.37403 117.764 -5.55112e-17
597 2 174.126 55.1596 -5.55112e-17
598 1 65.9606 179.49 -5.55112e-17
599 1 155.858 68.6083 -5.55112e-17
600 1 105.006 50.7999 -5.55112e-17
601 1 162.52 31.664 -5.55112e-17
602 1 76.0151 50.5012 -5.55112e-17
603 1 128.732 169.609 -5.55112e-17
604 1 105.256 17.9629 -5.55112e-17
605 2 169.802 111.832 -5.55112e-17
606 1 1.33003 75.3177 -5.55112e-17
607 2 57.1854 9.0861 -5.55112e-17
608 1 187.406 26.1612 -5.55112e-17
609 1 144.399 58.3897 -5.55112e-17
610 1 5.67597 70.7845 -5.55112e-17
611 1 164.863 5.45384 -5.55112e-17
612 1 176.414 91.3962 -5.55112e-17
613 1 152.166 45.1475 -5.55112e-17
614 2 85.5968 22.7354 -5.55112e-17
615 1 58.8323 82.3076 -5.55112e-17
616 1 48.7515 106.9 -5.55112e-17
617 1 31.1697 217.482 -5.55112e-17
618 1 9.15454 52.8801 -5.55112e-17
619 1 192.925 50.3043 -5.55112e-17
620 1 65.1664 214.298 -5.55112e-17
621 1 115.453 103.747 -5.55112e-17
622 1 97.1973 172.301 -5.55112e-17
623 1 114.907 179.121 -5.55112e-17
624 1 37.4941 209.825 -5.55112e-17
625 1 124.911 190.113 -5.55112e-17
626 1 57.4459 169.868 -5.55112e-17
627 1 203.424 209.859 -5.55112e-17
628 1 89.8269 94.235 -5.55112e-17
629 1 11.133 147.721 -5.55112e-17
630 2 87.7025 181.658 -5.55112e-17
631 1 23.9672 81.1312 -5.55112e-17
632 1 75.1777 72.955 -5.55112e-17
633 1 158.904 60.747 -5.55112e-17
634 1 201.795 40.0554 -5.55112e-17
635 1 200.706 26.9371 -5.55112e-17
636 1 209.52 126.655 -5.55112e-17
637 1 52.4207 15.2603 -5.55112e-17
638 1 129.62 166.526 -5.55112e-17
639 2 93.1429 175.263 -5.55112e-17
640 1 214.107 93.725 -5.55112e-17
641 1 198.552 205.885 -5.55112e-17
642 1 151.291 192.281 -5.55112e-17
643 2 103.444 197.064 -5.55112e-17
644 1 33.0471 213.941 -5.55112e-17
645 1 154.711 203.34 -5.55112e-17
646 2 129.527 78.4026 -5.55112e-17
647 1 187.332 172.74 -5.55112e-17
648 1 47.1981 76.0399 -5.55112e-17
649 2 15.6997 104.398 -5.55112e-17
650 1 100.324 190.594 -5.55112e-17
651 1 212.463 175.507 -5.55112e-17
652 1 142.527 45.1728 -5.55112e-17
653 1 187.05 59.498 -5.55112e-17
654 1 83.3378 84.2101 -5.55112e-17
655 2 143.851 137.99 -5.55112e-17
656 1 126.159 27.6114 -5.55112e-17
657 2 117.26 129.898 -5.55112e-17
658 1 127.526 92.0609 -5.55112e-17
659 2 18.2512 78.4921 -5.55112e-17
660 1 215.064 62.4109 -5.55112e-17
661 1 15.4356 107.135 -5.55112e-17
662 1 122.798 95.5972 -5.55112e-17
663 1 34.7564 173.978 -5.55112e-17
664 1 127.705 76.1064 -5.55112e-17
665 1 22.2893 177.212 -5.55112e-17
666 2 48.7359 49.4513 -5.55112e-17
667 1 211.195 87.2752 -5.55112e-17
668 2 212.713 195.096 -5.55112e-17
669 1 157.43 73.2804 -5.55112e-17
670 1 155.406 78.5498 -5.55112e-17
671 2 51.9915 152.852 -5.55112e-17
672 1 203.87 109.543 -5.55112e-17
673 1 140.027 59.5969 -5.55112e-17
674 1 213.87 79.1947 -5.55112e-17
675 1 209.522 171.364 -5.55112e-17
676 1 25.6113 172.822 -5.55112e-17
677 1 165.997 137.922 -5.55112e-17
678 1 6.05187 182.721 -5.55112e-17
679 2 193.074 35.8037 -5.55112e-17
680 1 96.6782 114.286 -5.55112e-17
681 2 32.3654 14.3782 -5.55112e-17
682 1 109.682 103.052 -5.55112e-17
683 1 171.027 198.633 -5.55112e-17
684 1 189.471 191.393 -5.55112e-17
685 1 38.2012 57.9911 -5.55112e-17
686 1 185.753 91.5024 -5.55112e-17
687 1 82.3035 31.9477 -5.55112e-17
688 1 11.1828 103.239 -5.55112e-17
689 2 181.917 186.046 -5.55112e-17
690 1 45.8526 161.883 -5.55112e-17
691 1 147.416 106.399 -5.55112e-17
692 1 56.3773 22.2881 -5.55112e-17
693 1 15.6098 115.423 -5.55112e-17
694 1 15.4859 21.8304 -5.55112e-17
695 1 166.317 148.81 -5.55112e-17
696 1 8.84276 102.156 -5.55112e-17
697 1 102.028 18.9717 -5.55112e-17
698 1 0.208877 88.7912 -5.55112e-17
699 1 143.135 133.015 -5.55112e-17
700 1 34.0564 21.9717 -5.55112e-17
701 1 108.013 163.8 -5.55112e-17
702 1 170.156 84.3618 -5.55112e-17
703 2 63.2687 75.7764 -5.55112e-17
704 1 168.377 123.68 -5.55112e-17
705 2 91.1424 194.14 -5.55112e-17
706 1 69.4815 23.277 -5.55112e-17
707 1 9.40068 195.323 -5.55112e-17
708 1 108.63 143.609 -5.55112e-17
709 1 136.649 211.38 -5.55112e-17
710 1 134.498 102.636 -5.55112e-17
711 1 200.651 74.6838 -5.55112e-17
712 1 208.078 119.782 -5.55112e-17
713 1 42.0904 74.2113 -5.55112e-17
714 1 83.8072 189.796 -5.55112e-17
715 1 154.576 205.622 -5.55112e-17
716 1 203.755 214.015 -5.55112e-17
717 1 198.749 165.477 -5.55112e-17
718 1 8.31537 110.76 -5.55112e-17
719 2 67.8662 73.7964 -5.55112e-17
720 1 210.695 75.5469 -5.55112e-17
721 1 37.5963 206.082 -5.55112e-17
722 1 123.469 47.4313 -5.55112e-17
723 2 96.0737 136.718 -5.55112e-17
724 1 82.8911 55.516 -5.55112e-17
725 1 44.4206 216.813 -5.55112e-17
726 1 89.8901 197.436 -5.55112e-17
727 1 199.474 169.533 -5.55112e-17
728 2 61.682 210.654 -5.55112e-17
729 1 94.9783 163.512 -5.55112e-17
730 1 89.3951 67.1785 -5.55112e-17
731 1 89.3391 38.4909 -5.55112e-17
732 1 86.927 0.0739098 -5.55112e-17
733 1 16.4912 93.835 -5.55112e-17
734 1 188.953 143.409 -5.55112e-17
735 1 110.086 153.554 -5.55112e-17
736 2 60.191 10.6106 -5.55112e-17
737 1 141.996 11.3291 -5.55112e-17
738 1 108.732 81.8366 -5.55112e-17
739 1 139.369 164.064 -5.55112e-17
740 1 160.154 21.9108 -5.55112e-17
741 2 194.211 107.714 -5.55112e-17
742 1 48.5347 12.6884 -5.55112e-17
743 1 156.768 102.742 -5.55112e-17
744 2 154.635 31.4132 -5.55112e-17
745 1 178.539 124.678 -5.55112e-17
746 1 90.1996 140.574 -5.55112e-17
747 2 213.79 137.829 -5.55112e-17
748 1 154.626 122.312 -5.55112e-17
749 1 44.607 72.7575 -5.55112e-17
750 1 47.5647 92.6525 -5.55112e-17
751 1 130.527 87.9917 -5.55112e-17
752 1 102.831 218.054 -5.55112e-17
753 1 82.6249 208.262 -5.55112e-17
754 1 49.1154 125.951 -5.55112e-17
755 1 216.498 137.532 -5.55112e-17
756 2 90.1739 154.429 -5.55112e-17
757 1 174.282 52.3727 -5.55112e-17
758 1 87.8568 45.0791 -5.55112e-17
759 1 148.896 53.7583 -5.55112e-17
760 1 173.69 36.7892 -5.55112e-17
761 1 110.868 194.35 -5.55112e-17
762 1 55.8516 75.7755 -5.55112e-17
763 1 151.672 196.801 -5.55112e-17
764 2 76.3897 171.016 -5.55112e-17
765 1 118.84 198.873 -5.55112e-17
766 1 36.8407 190.605 -5.55112e-17
767 1 76.8828 13.4607 -5.55112e-17
768 1 57.1624 195.223 -5.55112e-17
769 1 149.169 99.2478 -5.55112e-17
770 2 21.345 170.081 -5.55112e-17
771 1 161.532 86.3938 -5.55112e-17
772 1 181.458 89.0422 -5.55112e-17
773 1 80.4092 16.6792 -5.55112e-17
774 1 37.8465 65.4165 -5.55112e-17
775 1 94.1703 172.56 -5.55112e-17
776 1 196.812 65.4667 -5.55112e-17
777 1 121.546 114.301 -5.55112e-17
778 1 12.9939 21.3976 -5.55112e-17
779 1 34.1968 11.5464 -5.55112e-17
780 1 158.961 80.7576 -5.55112e-17
781 1 130.814 145.207 -5.55112e-17
782 1 84.7879 203.839 -5.55112e-17
783 1 101.582 215.669 -5.55112e-17
784 2 202.141 161.637 -5.55112e-17
785 1 215.579 103.654 -5.55112e-17
786 1 185.813 47.9796 -5.55112e-17
787 1 196.151 160.927 -5.55112e-17
788 1 24.2976 174.929 -5.55112e-17
789 2 108.325 193.158 -5.55112e-17
790 1 134.872 57.791 -5.55112e-17
791 2 121.987 90.2102 -5.55112e-17
792 2 139.18 26.6556 -5.55112e-17
793 2 103.741 117.445 -5.55112e-17
794 1 25.1113 160.866 -5.55112e-17
795 1 71.6198 176.857 -5.55112e-17
796 1 18.7794 216.734 -5.55112e-17
797 1 120.901 187.447 -5.55112e-17
798 2 78.6626 97.2523 -5.55112e-17
799 2 16.2239 185.217 -5.55112e-17
800 2 40.4228 60.132 -5.55112e-17
801 1 192.07 45.9507 -5.55112e-17
802 1 152.216 107.544 -5.55112e-17
803 1 52.1073 100.626 -5.55112e-17
804 2 131.691 41.3919 -5.55112e-17
805 1 17.2593 81.3321 -5.55112e-17
806 1 176.863 218.075 -5.55112e-17
807 2 61.5063 92.3496 -5.55112e-17
808 1 17.8266 175.63 -5.55112e-17
809 2 190.168 103.972 -5.55112e-17
810 1 10.977 173.182 -5.55112e-17
811 1 164.743 196.484 -5.55112e-17
812 1 188.635 183.636 -5.55112e-17
813 2 42.2068 12.9586 -5.55112e-17
814 1 25.66 129.53 -5.55112e-17
815 1 182.157 117.5 -5.55112e-17
816 1 175.356 181.867 -5.55112e-17
817 1 5.06619 132.593 -5.55112e-17
818 1 76.5463 25.3661 -5.55112e-17
819 1 200.55 147.002 -5.55112e-17
820 1 49.3358 136.589 -5.55112e-17
821 1 72.1779 113.659 -5.55112e-17
822 2 136.087 31.7087 -5.55112e-17
823 2 103.001 190.545 -5.55112e-17
824 1 92.5903 152.799 -5.55112e-17
825 1 150.569 9.74226 -5.55112e-17
826 1 29.117 194.528 -5.55112e-17
827 1 114.914 26.7209 -5.55112e-17
828 1 35.4314 212.622 -5.55112e-17
829 1 186.598 62.275 -5.55112e-17
830 1 148.6 2.64448 -5.55112e-17
831 1 143.942 28.4743 -5.55112e-17
832 1 90.5989 182.358 -5.55112e-17
833 1 171.005 87.2343 -5.55112e-17
834 1 120.45 184.006 -5.55112e-17
835 1 35.4806 128.278 -5.55112e-17
836 1 37.5581 142.013 -5.55112e-17
837 1 129.149 206.611 -5.55112e-17
838 1 87.0777 78.2752 -5.55112e-17
839 2 172.358 185.495 -5.55112e-17
840 1 200.699 5.83899 -5.55112e-17
841 2 38.7263 104.883 -5.55112e-17
842 1 89.0375 30.5496 -5.55112e-17
843 2 158.981 119.058 -5.55112e-17
844 1 38.9367 77.3618 -5.55112e-17
845 1 199.187 43.3606 -5.55112e-17
846 1 37.4817 126.222 -5.55112e-17
847 1 177.77 107.083 -5.55112e-17
848 1 144.575 95.0981 -5.55112e-17
849 1 18.4642 102.525 -5.55112e-17
850 1 201.046 141.898 -5.55112e-17
851 1 71.0687 194.694 -5.55112e-17
852 1 11.3118 25.7658 -5.55112e-17
853 1 18.9309 135.374 -5.55112e-17
854 1 165.336 61.0954 -5.55112e-17
855 1 20.78 208.349 -5.55112e-17
856 1 134.443 12.3937 -5.55112e-17