ITEM: TIMESTEP
0
ITEM: NUMBER OF ATOMS
7200
ITEM: BOX BOUNDS xy xz yz pp pp pp
0.0000000000000000e+00 2.1900000000000000e+02 0.0000000000000000e+00
0.0000000000000000e+00 2.1900000000000000e+02 0.0000000000000000e+00
-3.6499999999999999e-01 3.6499999999999999e-01 0.0000000000000000e+00
ITEM: ATOMS id type x y z
1 1 129.827 74.0556 -5.55112e-17
2 1 1.25923 170.496 -5.55112e-17
3 1 51.112 216.224 -5.55112e-17
4 1 93.5522 216.718 -5.55112e-17
5 1 182.709 175.562 -5.55112e-17
6 1 98.0877 49.8353 -5.55112e-17
7 1 101.414 125.428 -5.55112e-17
8 2 164.595 167.769 -5.55112e-17
9 1 200.493 74.4959 -5.55112e-17
10 2 134.509 99.1775 -5.55112e-17
11 1 208.371 136.045 -5.55112e-17
12 1 64.8424 97.5171 -5.55112e-17
13 2 44.3542 74.1935 -5.55112e-17
14 1 103.841 60.7706 -5.55112e-17
15 1 13.7299 23.3317 -5.55112e-17
16 2 65.5423 103.121 -5.55112e-17
17 1 131.995 42.7012 -5.55112e-17
18 2 28.3431 129.571 -5.55112e-17
19 1 56.6018 62.4667 -5.55112e-17
20 1 69.3137 129.234 -5.55112e-17
21 1 218.655 39.9725 -5.55112e-17
22 2 168.509 27.363 -5.55112e-17
23 2 124.318 87.4868 -5.55112e-17
24 1 150.428 178.22 -5.55112e-17
25 1 198.695 85.8947 -5.55112e-17
26 2 93.6692 116.774 -5.55112e-17
27 1 85.5412 71.3843 -5.55112e-17
28 2 1.75771 138.69 -5.55112e-17
29 1 115.662 48.5986 -5.55112e-17
30 1 201.824 198.699 -5.55112e-17
31 1 153.369 178.5 -5.55112e-17
32 1 194.422 75.3531 -5.55112e-17
33 1 24.1356 21.8872 -5.55112e-17
34 1 8.69935 53.0171 -5.55112e-17
35 1 194.098 145.419 -5.55112e-17
36 1 171.728 97.5219 -5.55112e-17
37 2 178.864 109.804 -5.55112e-17
38 1 93.8185 145.574 -5.55112e-17
39 1 78.8729 138.898 -5.55112e-17
40 1 218.585 89.6389 -5.55112e-17
41 1 131.386 91.8411 -5.55112e-17
42 1 83.7637 32.799 -5.55112e-17
43 1 93.6043 8.09949 -5.55112e-17
44 1 193.017 68.311 -5.55112e-17
45 1 138.52 37.8674 -5.55112e-17
46 1 106.391 4.65371 -5.55112e-17
47 1 146.164 42.6046 -5.55112e-17
48 2 47.0176 89.1945 -5.55112e-17
49 1 87.8827 95.7455 -5.55112e-17
50 1 199.251 134.223 -5.55112e-17
51 1 32.8829 87.3425 -5.55112e-17
52 1 30.9676 148.724 -5.55112e-17
53 1 8.57521 212.42 -5.55112e-17
54 1 112.827 198.554 -5.55112e-17
55 1 24.1988 55.0472 -5.55112e-17
56 1 11.3527 64.6044 -5.55112e-17
57 2 197.277 186.389 -5.55112e-17
58 1 47.398 71.905 -5.55112e-17
59 1 114.75 84.5417 -5.55112e-17
60 2 44.9954 174.077 -5.55112e-17
61 2 81.7533 25.6429 -5.55112e-17
62 1 112.264 121.274 -5.55112e-17
63 1 188.701 127.843 -5.55112e-17
64 1 64.0088 69.0285 -5.55112e-17
65 1 95.4518 88.5701 -5.55112e-17
66 1 164.831 79.4831 -5.55112e-17
67 1 182.808 20.1529 -5.55112e-17
68 1 91.1814 100.074 -5.55112e-17
69 1 96.4587 208.245 -5.55112e-17
70 1 108.832 210.926 -5.55112e-17
71 1 103.368 216.469 -5.55112e-17
72 1 175.286 117.906 -5.55112e-17
73 1 116.407 88.9734 -5.55112e-17
74 1 16.2904 2.98176 -5.55112e-17
75 2 39.9998 124.726 -5.55112e-17
76 1 4.60702 6.5013 -5.55112e-17
77 1 25.7421 82.0578 -5.55112e-17
78 1 116.748 202.711 -5.55112e-17
79 2 112.347 10.6726 -5.55112e-17
80 1 149.594 163.391 -5.55112e-17
81 1 56.0711 25.7625 -5.55112e-17
82 1 208.109 53.7264 -5.55112e-17
83 2 49.3492 41.5337 -5.55112e-17
84 1 53.0326 168.246 -5.55112e-17
85 1 203.774 28.5263 -5.55112e-17
86 1 122.668 165.555 -5.55112e-17
87 1 95.2332 210.998 -5.55112e-17
88 1 107.19 119.636 -5.55112e-17
89 2 185.393 46.3842 -5.55112e-17
90 2 115.931 74.5611 -5.55112e-17
91 1 78.3709 153.785 -5.55112e-17
92 2 92.4756 148.407 -5.55112e-17
93 1 206.643 73.6127 -5.55112e-17
94 2 167.713 54.7694 -5.55112e-17
95 1 143.009 87.4174 -5.55112e-17
96 1 30.7555 128.069 -5.55112e-17
97 1 1.0041 112.611 -5.55112e-17
98 1 140.088 168.355 -5.55112e-17
99 1 163.816 108.978 -5.55112e-17
100 1 49.4526 72.9263 -5.55112e-17
101 1 155.593 214.881 -5.55112e-17
102 1 69.3969 203.898 -5.55112e-17
103 1 3.72394 217.199 -5.55112e-17
104 1 150.276 129.74 -5.55112e-17
105 1 91.7811 105.064 -5.55112e-17
106 1 60.6693 210.938 -5.55112e-17
107 2 100.728 102.071 -5.55112e-17
108 1 37.4675 111.22 -5.55112e-17
109 1 195.815 125.128 -5.55112e-17
110 1 52.346 147.199 -5.55112e-17
111 1 212.986 68.0458 -5.55112e-17
112 1 179.726 56.382 -5.55112e-17
113 1 121.857 74.8907 -5.55112e-17
114 1 75.485 160.364 -5.55112e-17
115 1 34.0877 198.604 -5.55112e-17
116 2 117.858 30.1107 -5.55112e-17
117 1 21.2984 148.962 -5.55112e-17
118 1 84.5658 186.309 -5.55112e-17
119 2 124.385 18.6761 -5.55112e-17
120 1 3.31492 19.2417 -5.55112e-17
121 1 102.7 151.479 -5.55112e-17
122 1 41.5066 143.212 -5.55112e-17
123 1 151.141 49.4924 -5.55112e-17
124 1 66.5977 31.1349 -5.55112e-17
125 1 17.3074 74.7972 -5.55112e-17
126 1 2.5475 56.9907 -5.55112e-17
127 1 198.264 24.217 -5.55112e-17
128 1 140.967 77.7075 -5.55112e-17
129 1 173.615 218.136 -5.55112e-17
130 1 135.197 104.631 -5.55112e-17
131 1 69.5452 76.8569 -5.55112e-17
132 2 44.5089 5.38505 -5.55112e-17
133 1 123.57 1.76916 -5.55112e-17
134 1 37.1534 113.633 -5.55112e-17
135 1 31.3067 146.139 -5.55112e-17
136 1 197.695 78.8954 -5.55112e-17
137 1 149.504 31.9272 -5.55112e-17
138 1 144.414 129.123 -5.55112e-17
139 1 100.295 177.035 -5.55112e-17
140 2 212.952 137.418 -5.55112e-17
141 1 212.217 22.4315 -5.55112e-17
142 2 105.185 13.8666 -5.55112e-17
143 1 120.498 208.839 -5.55112e-17
144 2 155.364 116.584 -5.55112e-17
145 1 40.4012 33.3785 -5.55112e-17
146 1 37.7536 64.3412 -5.55112e-17
147 1 29.6805 40.6543 -5.55112e-17
148 1 211.755 206.012 -5.55112e-17
149 1 131.32 34.3274 -5.55112e-17
150 1 40.4851 84.7204 -5.55112e-17
151 1 21.4087 156.021 -5.55112e-17
152 1 82.7804 96.2758 -5.55112e-17
153 2 66.8945 68.1475 -5.55112e-17
154 1 106.147 111.858 -5.55112e-17
155 1 168.734 161.837 -5.55112e-17
156 2 6.45265 192.292 -5.55112e-17
157 1 119.394 85.6075 -5.55112e-17
158 1 206.453 197.562 -5.55112e-17
159 1 156.987 126.638 -5.55112e-17
160 1 110.34 92.6832 -5.55112e-17
161 1 180.551 69.011 -5.55112e-17
162 1 154.948 180.393 -5.55112e-17
163 1 94.9901 69.4867 -5.55112e-17
164 1 24.3146 42.5318 -5.55112e-17
165 1 205.44 105.728 -5.55112e-17
166 2 22.3121 89.9128 -5.55112e-17
167 1 114.498 193.382 -5.55112e-17
168 1 166.883 189.354 -5.55112e-17
169 1 108.338 84.1466 -5.55112e-17
170 1 26.3746 43.9428 -5.55112e-17
171 1 52.3878 106.908 -5.55112e-17
172 1 167.963 42.0531 -5.55112e-17
173 1 113.031 173.116 -5.55112e-17
174 1 195.182 205.679 -5.55112e-17
175 2 214.496 70.768 -5.55112e-17
176 1 129.433 206.395 -5.55112e-17
177 2 66.9811 22.8778 -5.55112e-17
178 1 153.991 55.8374 -5.55112e-17
179 1 211.056 120.863 -5.55112e-17
180 1 47.527 123.385 -5.55112e-17
181 1 16.1956 26.9429 -5.55112e-17
182 2 187.933 77.2489 -5.55112e-17
183 1 67.293 2.41478 -5.55112e-17
184 1 140.081 203.892 -5.55112e-17
185 2 162.72 26.8055 -5.55112e-17
186 2 97.3377 21.9928 -5.55112e-17
187 1 67.6612 60.2239 -5.55112e-17
188 1 37.3433 18.4387 -5.55112e-17
189 1 166.94 207.705 -5.55112e-17
190 2 131.858 202.379 -5.55112e-17
191 1 189.551 19.4773 -5.55112e-17
192 2 124.768 100.605 -5.55112e-17
193 2 166.731 71.4219 -5.55112e-17
194 1 104.21 134.474 -5.55112e-17
195 1 109.456 10.3681 -5.55112e-17
196 1 95.0497 149.73 -5.55112e-17
197 1 22.0416 92.7598 -5.55112e-17
198 2 49.0806 35.7595 -5.55112e-17
199 1 65.5286 207.72 -5.55112e-17
200 1 128.705 48.1833 -5.55112e-17
201 2 129.792 57.5864 -5.55112e-17
202 1 81.0702 130.365 -5.55112e-17
203 1 6.32262 109.872 -5.55112e-17
204 1 77.8544 202.647 -5.55112e-17
205 2 216.247 124.834 -5.55112e-17
206 1 152.238 10.1676 -5.55112e-17
207 1 117.621 64.4329 -5.55112e-17
208 1 36.4604 88.1732 -5.55112e-17
209 1 12.0569 9.93675 -5.55112e-17
210 1 48.1192 157.471 -5.55112e-17
211 2 72.0026 101.241 -5.55112e-17
212 1 142.804 72.2621 -5.55112e-17
213 1 161.943 116.383 -5.55112e-17
214 1 192.634 29.3071 -5.55112e-17
215 1 67.4056 35.7815 -5.55112e-17
216 1 134.758 9.33041 -5.55112e-17
217 1 161.021 166.136 -5.55112e-17
218 2 183.76 60.3524 -5.55112e-17
219 1 206.816 28.8189 -5.55112e-17
220 2 115.34 91.8531 -5.55112e-17
221 1 147.693 113.161 -5.55112e-17
222 1 112.74 69.2572 -5.55112e-17
223 1 178.631 178.033 -5.55112e-17
224 2 156.571 217.51 -5.55112e-17
225 1 17.0739 201.467 -5.55112e-17
226 1 13.6934 189.743 -5.55112e-17
227 2 102.13 12.9567 -5.55112e-17
228 1 68.2476 71.6842 -5.55112e-17
229 1 158.327 112.265 -5.55112e-17
230 1 4.25229 184.799 -5.55112e-17
231 1 159.77 100.922 -5.55112e-17
232 1 105.556 217.688 -5.55112e-17
233 1 68.9532 118.059 -5.55112e-17
234 1 38.7523 146.094 -5.55112e-17
235 1 165.02 55.1856 -5.55112e-17
236 1 132.062 98.0411 -5.55112e-17
237 1 143.67 159.233 -5.55112e-17
238 1 106.533 82.0848 -5.55112e-17
239 2 10.4666 162.553 -5.55112e-17
240 1 207.552 150.851 -5.55112e-17
241 2 136.683 184.453 -5.55112e-17
242 2 138.027 66.4659 -5.55112e-17
243 2 88.358 100.881 -5.55112e-17
244 1 16.6841 137.71 -5.55112e-17
245 1 140.703 39.0091 -5.55112e-17
246 1 109.297 107.508 -5.55112e-17
247 1 218.947 36.0384 -5.55112e-17
248 1 152.289 214.597 -5.55112e-17
249 1 81.4152 169.125 -5.55112e-17
250 2 42.0873 215.629 -5.55112e-17
251 1 57.7662 156.13 -5.55112e-17
252 1 101.928 95.798 -5.55112e-17
253 1 146.909 197.448 -5.55112e-17
254 2 85.5991 14.5238 -5.55112e-17
255 1 4.31761 33.2374 -5.55112e-17
256 1 195.552 150.964 -5.55112e-17
257 1 73.5871 108.664 -5.55112e-17
258 2 103.91 210.161 -5.55112e-17
259 1 32.2869 40.0938 -5.55112e-17
260 1 182.935 79.3196 -5.55112e-17
261 1 62.8633 161.911 -5.55112e-17
262 1 109.915 134.912 -5.55112e-17
263 1 216.057 121.515 -5.55112e-17
264 1 92.7959 17.7695 -5.55112e-17
265 1 57.3891 55.3747 -5.55112e-17
266 1 111.153 32.7515 -5.55112e-17
267 1 193.801 129.621 -5.55112e-17
268 1 52.7777 179.939 -5.55112e-17
269 1 64.1523 127.613 -5.55112e-17
270 1 44.5069 44.2078 -5.55112e-17
271 1 85.9218 155.632 -5.55112e-17
272 1 118.442 110.723 -5.55112e-17
273 1 198.349 165.336 -5.55112e-17
274 2 137.159 180.534 -5.55112e-17
275 1 48.553 58.9698 -5.55112e-17
276 2 19.6847 137.213 -5.55112e-17
277 2 112.544 217.226 -5.55112e-17
278 1 203.929 141.899 -5.55112e-17
279 2 159.155 117.103 -5.55112e-17
280 1 131.567 55.0201 -5.55112e-17
281 1 74.6819 49.9395 -5.55112e-17
282 1 58.8065 7.20593 -5.55112e-17
283 1 26.6382 104.692 -5.55112e-17
284 1 175.638 132.75 -5.55112e-17
285 1 46.8584 23.14 -5.55112e-17
286 2 210.821 83.5123 -5.55112e-17
287 1 205.159 26.4469 -5.55112e-17
288 1 154.002 17.395 -5.55112e-17
289 1 26.7905 58.2177 -5.55112e-17
290 1 32.1162 167.125 -5.55112e-17
291 1 72.6146 166.724 -5.55112e-17
292 2 36.2285 42.8827 -5.55112e-17
293 2 41.5898 7.13549 -5.55112e-17
294 1 1.65405 201.825 -5.55112e-17
295 1 55.5619 194.472 -5.55112e-17
296 1 32.7939 81.5181 -5.55112e-17
297 1 118.797 78.7248 -5.55112e-17
298 1 2.65198 74.5287 -5.55112e-17
299 1 103.905 183.533 -5.55112e-17
300 2 9.1074 189.438 -5.55112e-17
301 1 165.76 132.595 -5.55112e-17
302 1 61.7139 149.755 -5.55112e-17
303 2 143.286 203.542 -5.55112e-17
304 2 49.6656 19.427 -5.55112e-17
305 1 126.566 193.392 -5.55112e-17
306 1 19.4937 168.515 -5.55112e-17
307 1 63.4362 137.584 -5.55112e-17
308 1 169.867 145.126 -5.55112e-17
309 2 169.959 194.454 -5.55112e-17
310 1 127.143 5.10137 -5.55112e-17
311 1 73.264 169.283 -5.55112e-17
312 1 100.474 86.7352 -5.55112e-17
313 2 113.577 1.48805 -5.55112e-17
314 1 211.318 139.88 -5.55112e-17
315 1 51.1118 2.08067 -5.55112e-17
316 1 154.422 19.7121 -5.55112e-17
317 1 138.954 10.7339 -5.55112e-17
318 1 171.428 90.2361 -5.55112e-17
319 1 34.2546 143.573 -5.55112e-17
320 1 51.4295 77.4356 -5.55112e-17
321 1 59.5927 197.459 -5.55112e-17
322 1 204.039 90.8589 -5.55112e-17
323 1 180.079 71.7251 -5.55112e-17
324 1 200.425 157.444 -5.55112e-17
325 1 200.974 86.5155 -5.55112e-17
326 1 73.2347 191.811 -5.55112e-17
327 2 100.192 156.339 -5.55112e-17
328 1 180.105 134.663 -5.55112e-17
329 2 28.7385 180.792 -5.55112e-17
330 1 44.1533 217.378 -5.55112e-17
331 1 58.5229 123.264 -5.55112e-17
332 2 199.372 89.1306 -5.55112e-17
333 1 125.79 201.07 -5.55112e-17
334 1 74.7705 47.4852 -5.55112e-17
335 1 116.721 71.5493 -5.55112e-17
336 1 55.7524 139.795 -5.55112e-17
337 1 32.9062 201.23 -5.55112e-17
338 1 92.7069 70.6993 -5.55112e-17
339 1 117.824 19.2746 -5.55112e-17
340 1 119.082 201.964 -5.55112e-17
341 1 45.9324 36.9037 -5.55112e-17
342 1 62.8608 104.148 -5.55112e-17
343 1 200.143 44.856 -5.55112e-17
344 1 58.8633 19.2891 -5.55112e-17
345 1 91.6236 202.367 -5.55112e-17
346 1 169.592 199.749 -5.55112e-17
347 1 22.6395 110.323 -5.55112e-17
348 1 218.488 205.628 -5.55112e-17
349 1 125.219 170.656 -5.55112e-17
350 2 203.338 16.0594 -5.55112e-17
351 1 43.8929 95.4646 -5.55112e-17
352 1 110.868 18.0643 -5.55112e-17
353 1 128.435 160.849 -5.55112e-17
354 1 180.912 127.715 -5.55112e-17
355 1 135.756 94.8223 -5.55112e-17
356 1 129.061 92.9826 -5.55112e-17
357 1 99.7477 170.878 -5.55112e-17
358 1 20.7805 36.6298 -5.55112e-17
359 1 194.85 208.144 -5.55112e-17
360 1 63.0212 186.405 -5.55112e-17
361 1 199.585 127.097 -5.55112e-17
362 1 24.0187 154.169 -5.55112e-17
363 1 121.626 44.6985 -5.55112e-17
364 2 127.143 136.41 -5.55112e-17
365 1 58.1644 64.0987 -5.55112e-17
366 1 54.0722 126.692 -5.55112e-17
367 1 39.5071 113.21 -5.55112e-17
368 1 186.475 205.926 -5.55112e-17
369 2 62.8859 79.7102 -5.55112e-17
370 1 164.661 188.744 -5.55112e-17
371 1 29.1895 57.5317 -5.55112e-17
372 2 137.835 79.0546 -5.55112e-17
373 2 41.5948 102.044 -5.55112e-17
374 1 155.466 194.162 -5.55112e-17
375 1 166.397 57.272 -5.55112e-17
376 1 48.5678 188.766 -5.55112e-17
377 1 111.945 201.075 -5.55112e-17
378 1 85.6765 194.706 -5.55112e-17
379 1 194.693 185.409 -5.55112e-17
380 1 16.3101 99.5301 -5.55112e-17
381 1 102.683 51.3651 -5.55112e-17
382 1 0.340399 99.795 -5.55112e-17
383 1 182.049 54.7499 -5.55112e-17
384 1 160.832 204.269 -5.55112e-17
385 1 212.853 151.279 -5.55112e-17
386 2 48.4077 160.267 -5.55112e-17
387 1 196.264 183.602 -5.55112e-17
388 1 76.7384 172.343 -5.55112e-17
389 1 107.964 213.623 -5.55112e-17
390 2 43.2939 1.56513 -5.55112e-17
391 2 67.9019 28.425 -5.55112e-17
392 1 175.161 184.173 -5.55112e-17
393 1 92.1715 156.273 -5.55112e-17
394 1 88.6905 114.222 -5.55112e-17
395 1 34.0126 51.4365 -5.55112e-17
396 1 133.923 206.745 -5.55112e-17
397 1 188.338 177.22 -5.55112e-17
398 1 109.951 208.462 -5.55112e-17
399 1 30.529 82.6468 -5.55112e-17
400 1 120.955 67.9581 -5.55112e-17
401 1 79.5128 23.831 -5.55112e-17
402 2 72.7135 82.6827 -5.55112e-17
403 1 133.95 85.0968 -5.55112e-17
404 1 123.678 121.47 -5.55112e-17
405 1 192.745 113.702 -5.55112e-17
406 1 136.195 14.3082 -5.55112e-17
407 2 139.66 53.1013 -5.55112e-17
408 1 16.9544 193.239 -5.55112e-17
409 1 122.959 111.495 -5.55112e-17
410 1 72.1124 113.215 -5.55112e-17
411 1 196.378 159.572 -5.55112e-17
412 1 161.337 206.82 -5.55112e-17
413 1 53.8596 149.147 -5.55112e-17
414 1 198.854 76.6846 -5.55112e-17
415 1 188.985 167.839 -5.55112e-17
416 1 151.841 38.4032 -5.55112e-17
417 1 164.32 13.0094 -5.55112e-17
418 2 206.932 209.765 -5.55112e-17
419 1 96.9875 121.309 -5.55112e-17
420 2 168.129 114.98 -5.55112e-17
421 1 128.231 61.8226 -5.55112e-17
422 1 174.116 181.654 -5.55112e-17
423 2 124.948 7.11421 -5.55112e-17
424 1 58.392 50.8758 -5.55112e-17
425 1 131.386 210.65 -5.55112e-17
426 1 153.216 181.858 -5.55112e-17
427 1 163.679 24.034 -5.55112e-17
428 1 206.461 16.5914 -5.55112e-17
429 1 202.939 98.882 -5.55112e-17
430 1 99.6996 139.876 -5.55112e-17
431 1 56.9759 30.2506 -5.55112e-17
432 1 87.8798 91.502 -5.55112e-17
433 1 162.679 93.5838 -5.55112e-17
434 1 131.197 194.632 -5.55112e-17
435 1 115.967 0.76756 -5.55112e-17
436 1 40.1052 23.8121 -5.55112e-17
437 1 176.486 5.21164 -5.55112e-17
438 2 2.83242 182.46 -5.55112e-17
439 1 203.69 210.448 -5.55112e-17
440 1 27.9921 185.819 -5.55112e-17
441 1 86.8544 98.0536 -5.55112e-17
442 1 91.1951 197.286 -5.55112e-17
443 1 174.365 156.163 -5.55112e-17
444 1 66.0503 9.55246 -5.55112e-17
445 1 93.6265 209.179 -5.55112e-17
446 1 171.695 149.117 -5.55112e-17
447 1 101.756 188.989 -5.55112e-17
448 1 61.9326 82.0682 -5.55112e-17
449 1 202.191 127.163 -5.55112e-17
450 1 179.651 23.0886 -5.55112e-17
451 1 108.559 171.665 -5.55112e-17
452 1 210.775 27.3191 -5.55112e-17
453 1 195.571 2.55574 -5.55112e-17
454 1 171.078 36.5894 -5.55112e-17
455 1 168.367 24.2345 -5.55112e-17
456 1 35.4991 34.3463 -5.55112e-17
457 1 182.971 170.677 -5.55112e-17
458 1 190.72 129.908 -5.55112e-17
459 1 25.1547 207.388 -5.55112e-17
460 1 205.592 168.172 -5.55112e-17
461 1 32.9707 129.067 -5.55112e-17
462 1 98.2209 68.5075 -5.55112e-17
463 1 117.396 206.751 -5.55112e-17
464 1 161.291 5.13017 -5.55112e-17
465 1 76.6683 65.8249 -5.55112e-17
466 1 185.875 7.15639 -5.55112e-17
467 1 122.521 102.706 -5.55112e-17
468 1 64.5845 66.4195 -5.55112e-17
469 1 6.43749 189.114 -5.55112e-17
470 1 208.646 75.1454 -5.55112e-17
471 1 132.833 156.338 -5.55112e-17
472 1 94.5789 105.197 -5.55112e-17
473 1 110.686 22.837 -5.55112e-17
474 1 157.67 99.3008 -5.55112e-17
475 1 42.7982 85.3817 -5.55112e-17
476 2 27.9579 117.625 -5.55112e-17
477 1 151.11 1.08051 -5.55112e-17
478 1 77.3859 29.5154 -5.55112e-17
479 1 123.649 119.127 -5.55112e-17
480 1 215.295 164.286 -5.55112e-17
481 1 53.5605 189.809 -5.55112e-17
482 1 138.033 19.7303 -5.55112e-17
483 1 85.5173 101.129 -5.55112e-17
484 2 137.849 103.732 -5.55112e-17
485 1 15.1848 20.9328 -5.55112e-17
486 1 154.378 61.0837 -5.55112e-17
487 1 164.51 19.8255 -5.55112e-17
488 1 67.7098 152.921 -5.55112e-17
489 1 0.475313 30.678 -5.55112e-17
490 1 138.906 148.047 -5.55112e-17
491 1 49.688 113.698 -5.55112e-17
492 1 130.744 173.346 -5.55112e-17
493 1 46.0829 188.42 -5.55112e-17
494 1 15.4923 78.1835 -5.55112e-17
495 1 14.0407 137.796 -5.55112e-17
496 2 125.393 157.235 -5.55112e-17
497 1 97.8076 87.6532 -5.55112e-17
498 1 28.3304 10.1968 -5.55112e-17
499 2 79.0886 55.7874 -5.55112e-17
500 1 105.819 196.722 -5.55112e-17
501 2 4.22084 202.992 -5.55112e-17
502 2 141.282 188.262 -5.55112e-17
503 1 128.934 35.2463 -5.55112e-17
504 1 216.136 52.2668 -5.55112e-17
505 1 176.477 148.888 -5.55112e-17
506 1 200.831 81.7581 -5.55112e-17
507 1 75.9734 103.339 -5.55112e-17
508 1 183.532 83.8693 -5.55112e-17
509 2 2.49794 102.101 -5.55112e-17
510 2 174.12 102.485 -5.55112e-17
511 1 128.978 68.4052 -5.55112e-17
512 2 14.1436 5.06474 -5.55112e-17
513 1 89.5877 64.0182 -5.55112e-17
514 1 167.257 130.523 -5.55112e-17
515 1 77.7526 9.92525 -5.55112e-17
516 1 213.793 15.4262 -5.55112e-17
517 1 127.075 180.332 -5.55112e-17
518 2 158.344 106.543 -5.55112e-17
519 1 142.101 163.875 -5.55112e-17
520 2 94.4641 201.289 -5.55112e-17
521 1 94.4886 157.208 -5.55112e-17
522 1 28.1965 82.5126 -5.55112e-17
523 1 60.8617 114.735 -5.55112e-17
524 1 108.237 206.818 -5.55112e-17
525 1 145.521 154.453 -5.55112e-17
526 1 205.141 87.1675 -5.55112e-17
527 1 92.8125 133.425 -5.55112e-17
528 1 207.816 11.5936 -5.55112e-17
529 1 87.9212 68.126 -5.55112e-17
530 1 40.6236 2.22382 -5.55112e-17
531 1 154.778 40.169 -5.55112e-17
532 1 68.3113 195.119 -5.55112e-17
533 1 51.7157 74.807 -5.55112e-17
534 1 63.1292 122.151 -5.55112e-17
535 1 106.493 170.054 -5.55112e-17
536 1 10.0027 144.166 -5.55112e-17
537 1 74.1037 172.199 -5.55112e-17
538 1 30.7909 62.2165 -5.55112e-17
539 1 75.535 63.3986 -5.55112e-17
540 1 9.57113 183.731 -5.55112e-17
541 1 177.001 176.248 -5.55112e-17
542 1 114.349 119.847 -5.55112e-17
543 1 203.14 74.5535 -5.55112e-17
544 1 113.923 168.556 -5.55112e-17
545 1 121.692 6.07133 -5.55112e-17
546 1 168.279 98.118 -5.55112e-17
547 1 142.663 32.6116 -5.55112e-17
548 1 93.9551 140.177 -5.55112e-17
549 1 197.387 112.819 -5.55112e-17
550 2 191.255 82.3606 -5.55112e-17
551 2 33.8864 157.346 -5.55112e-17
552 2 73.9556 42.9004 -5.55112e-17
553 1 108.994 158.907 -5.55112e-17
554 1 102.924 176.456 -5.55112e-17
555 2 12.126 74.2094 -5.55112e-17
556 1 120.55 77.2529 -5.55112e-17
557 1 154.654 106.881 -5.55112e-17
558 1 16.1287 149.579 -5.55112e-17
559 1 19.2315 41.3578 -5.55112e-17
560 1 37.4863 164.33 -5.55112e-17
561 1 47.8138 148.086 -5.55112e-17
562 1 167.199 87.2338 -5.55112e-17
563 2 168.508 8.05661 -5.55112e-17
564 1 62.9715 1.11797 -5.55112e-17
565 1 113.899 4.72774 -5.55112e-17
566 1 103.456 75.9371 -5.55112e-17
567 1 154.536 199.246 -5.55112e-17
568 1 146.717 90.0721 -5.55112e-17
569 1 129.83 188.413 -5.55112e-17
570 1 166.744 39.8272 -5.55112e-17
571 1 181.043 208.029 -5.55112e-17
572 1 169.635 175.961 -5.55112e-17
573 1 198.458 14.7505 -5.55112e-17
574 1 1.70116 107.459 -5.55112e-17
575 1 130.331 199.847 -5.55112e-17
576 1 10.9021 119.56 -5.55112e-17
577 1 9.76644 26.3346 -5.55112e-17
578 1 109.762 194.375 -5.55112e-17
579 1 176.398 164.223 -5.55112e-17
580 1 31.9368 207.668 -5.55112e-17
581 1 201.797 155.496 -5.55112e-17
582 1 104.242 70.1058 -5.55112e-17
583 1 90.1345 138.486 -5.55112e-17
584 2 170.45 71.9795 -5.55112e-17
585 1 4.70992 73.2627 -5.55112e-17
586 1 184.968 113.029 -5.55112e-17
587 1 110.492 153.2 -5.55112e-17
588 1 99.4382 179.406 -5.55112e-17
589 1 62.7266 193.911 -5.55112e-17
590 1 114.57 171.117 -5.55112e-17
591 1 86.9548 174.287 -5.55112e-17
592 1 33.0164 63.6786 -5.55112e-17
593 1 198.82 160.161 -5.55112e-17
594 1 127.255 58.7063 -5.55112e-17
595 1 190.345 209.021 -5.55112e-17
596 1 185.037 203.384 -5.55112e-17
597 2 69.7281 176.484 -5.55112e-17
598 1 11.9634 209.831 -5.55112e-17
599 1 202.848 59.1725 -5.55112e-17
600 1 120.118 18.5295 -5.55112e-17
601 1 43.5028 131.286 -5.55112e-17
602 1 209.249 3.07238 -5.55112e-17
603 1 161.59 38.1131 -5.55112e-17
604 1 133.27 49.8282 -5.55112e-17
605 2 120.418 51.2016 -5.55112e-17
606 1 196.3 55.8321 -5.55112e-17
607 2 203.37 52.0142 -5.55112e-17
608 1 65.7737 105.772 -5.55112e-17
609 1 132.495 181.828 -5.55112e-17
610 1 79.8119 161.913 -5.55112e-17
611 1 44.7072 205.338 -5.55112e-17
612 1 112.398 154.882 -5.55112e-17
613 1 196.906 19.4017 -5.55112e-17
614 2 44.4187 19.2506 -5.55112e-17
615 1 206.038 149.182 -5.55112e-17
616 1 51.5722 211.402 -5.55112e-17
617 1 76.513 142.089 -5.55112e-17
618 1 27.5647 73.0848 -5.55112e-17
619 1 194.045 0.150732 -5.55112e-17
620 1 173.07 118.851 -5.55112e-17
621 1 192.373 9.79535 -5.55112e-17
622 1 137.433 172.353 -5.55112e-17
623 1 160.22 53.7039 -5.55112e-17
624 1 19.2238 133.072 -5.55112e-17
625 1 167.539 95.0598 -5.55112e-17
626 1 114.893 153.394 -5.55112e-17
627 1 21.6131 182.736 -5.55112e-17
628 1 76.5502 12.0195 -5.55112e-17
629 1 175.481 206.268 -5.55112e-17
630 2 138.45 94.1385 -5.55112e-17
631 1 79.1231 98.8044 -5.55112e-17
632 1 136.986 97.1553 -5.55112e-17
633 1 100.803 15.4011 -5.55112e-17
634 1 172.551 128.614 -5.55112e-17
635 1 71.9217 152.277 -5.55112e-17
636 1 49.1318 103.419 -5.55112e-17
637 1 154.276 109.446 -5.55112e-17
638 1 139.038 124.607 -5.55112e-17
639 2 44.4873 71.0618 -5.55112e-17
640 1 182.155 97.3823 -5.55112e-17
641 1 184.722 90.4255 -5.55112e-17
642 1 124.746 58.4733 -5.55112e-17
643 2 86.7049 139.006 -5.55112e-17
644 1 169.918 53.2125 -5.55112e-17
645 1 156.58 25.5531 -5.55112e-17
646 2 52.0306 22.5046 -5.55112e-17
647 1 113.254 195.993 -5.55112e-17
648 1 130.576 190.371 -5.55112e-17
649 2 144.709 39.9505 -5.55112e-17
650 1 196.514 199.646 -5.55112e-17
651 1 74.2006 162.192 -5.55112e-17
652 1 64.6706 203.564 -5.55112e-17
653 1 137.832 213.072 -5.55112e-17
654 1 30.5062 47.6654 -5.55112e-17
655 2 72.9421 204.144 -5.55112e-17
656 1 121.234 3.10536 -5.55112e-17
657 2 130.919 76.5084 -5.55112e-17
658 1 215.199 186.029 -5.55112e-17
659 2 0.350267 115.756 -5.55112e-17
660 1 167.385 168.67 -5.55112e-17
661 1 130.283 11.3428 -5.55112e-17
662 1 170.881 138.37 -5.55112e-17
663 1 200.174 3.9181 -5.55112e-17
664 1 11.907 149.433 -5.55112e-17
665 1 36.5795 187.771 -5.55112e-17
666 2 159.867 40.9872 -5.55112e-17
667 1 193.204 73.1938 -5.55112e-17
668 2 105.409 165.099 -5.55112e-17
669 1 217.78 111.031 -5.55112e-17
670 1 218.15 200.505 -5.55112e-17
671 2 162.999 75.1586 -5.55112e-17
672 1 218.722 209.051 -5.55112e-17
673 1 174.222 211.127 -5.55112e-17
674 1 182.334 199.028 -5.55112e-17
675 1 4.34753 190.746 -5.55112e-17
676 1 204.22 3.39389 -5.55112e-17
677 1 91.8308 178.694 -5.55112e-17
678 1 191.175 149.388 -5.55112e-17
679 2 210.023 145.499 -5.55112e-17
680 1 10.541 71.5204 -5.55112e-17
681 2 39.5138 172.055 -5.55112e-17
682 1 65.0951 132.895 -5.55112e-17
683 1 20.1575 120.326 -5.55112e-17
684 1 157.624 193.258 -5.55112e-17
685 1 41.6309 162.74 -5.55112e-17
686 1 118.878 118.386 -5.55112e-17
687 1 21.5446 201.877 -5.55112e-17
688 1 158.859 186.024 -5.55112e-17
689 2 151.351 109.951 -5.55112e-17
690 1 52.0022 61.5578 -5.55112e-17
691 1 166.933 198.773 -5.55112e-17
692 1 24.0396 148.932 -5.55112e-17
693 1 107.659 199.354 -5.55112e-17
694 1 107.03 209.116 -5.55112e-17
695 1 123.314 38.7377 -5.55112e-17
696 1 53.0522 194.355 -5.55112e-17
697 1 81.5594 122.471 -5.55112e-17
698 1 156.317 159.896 -5.55112e-17
699 1 114.099 42.6193 -5.55112e-17
700 1 128.128 201.272 -5.55112e-17
701 1 156.995 39.4233 -5.55112e-17
702 1 77.4967 42.8583 -5.55112e-17
703 2 112.022 157.708 -5.55112e-17
704 1 133.802 35.8016 -5.55112e-17
705 2 205.562 135.589 -5.55112e-17
706 1 216.96 192.666 -5.55112e-17
707 1 107.273 135.329 -5.55112e-17
708 1 47.1727 10.2154 -5.55112e-17
709 1 105.496 67.3175 -5.55112e-17
710 1 34.8835 100.004 -5.55112e-17
711 1 192.241 195.437 -5.55112e-17
712 1 169.412 61.8314 -5.55112e-17
713 1 142.27 128.469 -5.55112e-17
714 1 160.291 131.937 -5.55112e-17
715 1 172.427 52.8818 -5.55112e-17
716 1 25.4126 35.0948 -5.55112e-17
717 1 119.315 35.2413 -5.55112e-17
718 1 191.532 211.602 -5.55112e-17
719 2 49.1023 218.537 -5.55112e-17
720 1 53.7721 59.5564 -5.55112e-17
721 1 27.2466 178.074 -5.55112e-17
722 1 13.1465 71.6225 -5.55112e-17
723 2 161.429 56.194 -5.55112e-17
724 1 13.7762 2.09798 -5.55112e-17
725 1 130.387 156.505 -5.55112e-17
726 1 79.1465 184.421 -5.55112e-17
727 1 33.2695 35.5099 -5.55112e-17
728 2 3.92779 11.4905 -5.55112e-17
729 1 169.47 32.63 -5.55112e-17
730 1 63.2445 33.6066 -5.55112e-17
731 1 192.228 58.5652 -5.55112e-17
732 1 107.217 177.326 -5.55112e-17
733 1 206.849 141.284 -5.55112e-17
734 1 23.4097 27.7919 -5.55112e-17
735 1 106.769 28.7719 -5.55112e-17
736 2 92.9554 94.2004 -5.55112e-17
737 1 129.757 52.3581 -5.55112e-17
738 1 160.233 153.759 -5.55112e-17
739 1 56.6585 115.31 -5.55112e-17
740 1 33.9375 188.859 -5.55112e-17
741 2 204.572 54.8602 -5.55112e-17
742 1 167.214 5.01883 -5.55112e-17
743 1 133.039 73.9256 -5.55112e-17
744 2 105.262 47.8838 -5.55112e-17
745 1 105.27 185.738 -5.55112e-17
746 1 28.7621 70.5835 -5.55112e-17
747 2 129.1 42.6156 -5.55112e-17
748 1 115.898 105.484 -5.55112e-17
749 1 137.241 169.446 -5.55112e-17
750 1 39.965 77.6333 -5.55112e-17
751 1 56.1476 59.5807 -5.55112e-17
752 1 19.4971 46.5466 -5.55112e-17
753 1 14.6305 199.99 -5.55112e-17
754 1 181.036 197.127 -5.55112e-17
755 1 108.807 169.099 -5.55112e-17
756 2 1.29652 152.714 -5.55112e-17
757 1 106.102 211.94 -5.55112e-17
758 1 1.81705 185.412 -5.55112e-17
759 1 11.6321 151.942 -5.55112e-17
760 1 48.8784 95.7448 -5.55112e-17
761 1 99.7072 12.6982 -5.55112e-17
762 1 169.174 30.2534 -5.55112e-17
763 1 99.5313 137.359 -5.55112e-17
764 2 86.9202 206.411 -5.55112e-17
765 1 23.1024 70.8215 -5.55112e-17
766 1 21.1644 208.168 -5.55112e-17
767 1 162.971 78.1738 -5.55112e-17
768 1 23.424 75.2091 -5.55112e-17
769 1 215.29 194.25 -5.55112e-17
770 2 107.411 152.822 -5.55112e-17
771 1 64.7619 54.4971 -5.55112e-17
772 1 97.4561 171.173 -5.55112e-17
773 1 139.236 63.3427 -5.55112e-17
774 1 190.664 169.835 -5.55112e-17
775 1 150.596 149.383 -5.55112e-17
776 1 144.041 6.0104 -5.55112e-17
777 1 44.0896 107.408 -5.55112e-17
778 1 136.51 85.1 -5.55112e-17
779 1 28.3393 134.908 -5.55112e-17
780 1 161.977 216.729 -5.55112e-17
781 1 99.6985 89.0665 -5.55112e-17
782 1 197.03 189.767 -5.55112e-17
783 1 87.5434 73.1371 -5.55112e-17
784 2 34.8808 73.7324 -5.55112e-17
785 1 68.5674 12.9319 -5.55112e-17
786 1 148.48 110.976 -5.55112e-17
787 1 97.578 109.856 -5.55112e-17
788 1 74.404 134.205 -5.55112e-17
789 2 75.555 55.7837 -5.55112e-17
790 1 178.312 191.013 -5.55112e-17
791 2 106.585 71.9939 -5.55112e-17
792 2 83.5979 22.5076 -5.55112e-17
793 2 217.256 18.1958 -5.55112e-17
794 1 54.792 92.0547 -5.55112e-17
795 1 90.8913 189.121 -5.55112e-17
796 1 177.471 188.787 -5.55112e-17
797 1 21.5826 178.111 -5.55112e-17
798 2 10.5001 62.0004 -5.55112e-17
799 2 82.7437 135.228 -5.55112e-17
800 2 130.243 63.8967 -5.55112e-17
801 1 153.999 88.9877 -5.55112e-17
802 1 178.411 165.348 -5.55112e-17
803 1 149.592 22.8176 -5.55112e-17
804 2 139.055 48.9015 -5.55112e-17
805 1 181.622 187.223 -5.55112e-17
806 1 152.995 76.4548 -5.55112e-17
807 2 188.152 198.44 -5.55112e-17
808 1 165.836 76.8599 -5.55112e-17
809 2 115.238 156.178 -5.55112e-17
810 1 82.4551 110.426 -5.55112e-17
811 1 44.7403 56.6963 -5.55112e-17
812 1 134.539 148.263 -5.55112e-17
813 2 164.702 194.224 -5.55112e-17
814 1 89.0439 167.391 -5.55112e-17
815 1 194.228 8.27439 -5.55112e-17
816 1 33.3708 97.859 -5.55112e-17
817 1 56.9408 52.7829 -5.55112e-17
818 1 60.9657 160.238 -5.55112e-17
819 1 12.9427 36.0849 -5.55112e-17
820 1 212.136 72.5356 -5.55112e-17
821 1 46.2305 41.5864 -5.55112e-17
822 2 55.8145 132.677 -5.55112e-17
823 2 6.69401 135.196 -5.55112e-17
824 1 174.345 188.573 -5.55112e-17
825 1 203.906 128.723 -5.55112e-17
826 1 117.875 146.718 -5.55112e-17
827 1 25.3347 185.47 -5.55112e-17
828 1 199.382 41.9708 -5.55112e-17
829 1 113.934 160.243 -5.55112e-17
830 1 72.6516 164.245 -5.55112e-17
831 1 70.8022 208.507 -5.55112e-17
832 1 129.016 166.473 -5.55112e-17
833 1 59.619 68.3984 -5.55112e-17
834 1 139.645 15.6627 -5.55112e-17
835 1 111.279 46.1782 -5.55112e-17
836 1 32.0323 18.8412 -5.55112e-17
837 1 45.004 153.123 -5.55112e-17
838 1 163.805 0.500304 -5.55112e-17
839 2 24.2563 99.8008 -5.55112e-17
840 1 19.2503 43.6424 -5.55112e-17
841 2 185.94 132.274 -5.55112e-17
842 1 17.1173 169.768 -5.55112e-17
843 2 118.539 186.909 -5.55112e-17
844 1 4.62414 70.6086 -5.55112e-17
845 1 31.4508 198.887 -5.55112e-17
846 1 160.001 7.2194 -5.55112e-17
847 1 137.834 24.8841 -5.55112e-17
848 1 32.6839 164.723 -5.55112e-17
849 1 55.3669 100.591 -5.55112e-17
850 1 60.1146 65.8657 -5.55112e-17
851 1 6.43767 132.277 -5.55112e-17
852 1 186.69 149.485 -5.55112e-17
853 1 214.666 177.403 -5.55112e-17
854 1 178.654 207.497 -5.55112e-17
855 1 140.724 80.2848 -5.55112e-17