ITEM: TIMESTEP
0
ITEM: NUMBER OF ATOMS
7200
ITEM: BOX BOUNDS xy xz yz pp pp pp
0.0000000000000000e+00 2.1900000000000000e+02 0.0000000000000000e+00
0.0000000000000000e+00 2.1900000000000000e+02 0.0000000000000000e+00
-3.6499999999999999e-01 3.6499999999999999e-01 0.0000000000000000e+00
ITEM: ATOMS id type x y z
1 1 196.37 44.9122 -5.55112e-17
2 1 177.022 59.6213 -5.55112e-17
3 1 203.53 134.862 -5.55112e-17
4 1 55.0224 135.841 -5.55112e-17
5 1 156.142 134.437 -5.55112e-17
6 1 186.011 84.4359 -5.55112e-17
7 1 27.2161 204.168 -5.55112e-17
8 2 167.311 133.467 -5.55112e-17
9 1 79.0636 214.48 -5.55112e-17
10 2 218.49 124.902 -5.55112e-17
11 1 193.987 115.941 -5.55112e-17
12 1 43.5223 146.699 -5.55112e-17
13 2 153.82 204.992 -5.55112e-17
14 1 116.052 1.16726 -5.55112e-17
15 1 192.354 19.2736 -5.55112e-17
16 2 170.933 195.353 -5.55112e-17
17 1 170.561 47.0445 -5.55112e-17
18 2 33.7879 146.636 -5.55112e-17
19 1 184.745 91.9062 -5.55112e-17
20 1 36.4989 147.517 -5.55112e-17
21 1 41.9099 173.468 -5.55112e-17
22 2 45.6891 82.5428 -5.55112e-17
23 2 0.180251 69.8999 -5.55112e-17
24 1 26.8294 185.962 -5.55112e-17
25 1 26.1187 47.0718 -5.55112e-17
26 2 3.64186 145.493 -5.55112e-17
27 1 165.437 188.599 -5.55112e-17
28 2 57.7692 192.564 -5.55112e-17
29 1 211.957 85.0591 -5.55112e-17
30 1 124.058 88.9074 -5.55112e-17
31 1 100.003 86.0115 -5.55112e-17
32 1 62.9335 80.6697 -5.55112e-17
33 1 99.0476 184.851 -5.55112e-17
34 1 200.194 79.7647 -5.55112e-17
35 1 107.271 188.859 -5.55112e-17
36 1 109.297 114.84 -5.55112e-17
37 2 195.237 196.467 -5.55112e-17
38 1 182.5 93.9983 -5.55112e-17
39 1 195.979 96.3397 -5.55112e-17
40 1 106.945 118.808 -5.55112e-17
41 1 213.03 153.374 -5.55112e-17
42 1 154.129 141.053 -5.55112e-17
43 1 133.516 72.912 -5.55112e-17
44 1 153.859 197.367 -5.55112e-17
45 1 106.887 121.266 -5.55112e-17
46 1 46.6381 46.7871 -5.55112e-17
47 1 119.866 97.0869 -5.55112e-17
48 2 212.116 66.0397 -5.55112e-17
49 1 132.865 213.145 -5.55112e-17
50 1 6.15102 190.363 -5.55112e-17
51 1 15.3357 198.765 -5.55112e-17
52 1 141.314 95.1757 -5.55112e-17
53 1 218.593 171.818 -5.55112e-17
54 1 194.055 132.871 -5.55112e-17
55 1 4.59602 106.267 -5.55112e-17
56 1 86.378 183.488 -5.55112e-17
57 2 155.028 119.441 -5.55112e-17
58 1 156.452 205.12 -5.55112e-17
59 1 38.1309 12.9436 -5.55112e-17
60 2 128.269 9.72842 -5.55112e-17
61 2 217.004 82.5552 -5.55112e-17
62 1 149.141 73.3872 -5.55112e-17
63 1 210.286 114.315 -5.55112e-17
64 1 19.5975 70.1551 -5.55112e-17
65 1 202.031 213.435 -5.55112e-17
66 1 189.63 62.198 -5.55112e-17
67 1 34.3883 176.586 -5.55112e-17
68 1 73.7467 206.265 -5.55112e-17
69 1 83.8616 144.052 -5.55112e-17
70 1 71.6869 61.0894 -5.55112e-17
71 1 81.2451 18.9412 -5.55112e-17
72 1 37.5729 142.351 -5.55112e-17
73 1 155.237 168.514 -5.55112e-17
74 1 118.116 32.7974 -5.55112e-17
75 2 121.264 25.5958 -5.55112e-17
76 1 81.0577 56.0371 -5.55112e-17
77 1 205.913 1.21931 -5.55112e-17
78 1 108.68 78.3098 -5.55112e-17
79 2 204.803 208.26 -5.55112e-17
80 1 146.103 205.035 -5.55112e-17
81 1 145.687 127.919 -5.55112e-17
82 1 204.78 3.14629 -5.55112e-17
83 2 88.7769 2.04644 -5.55112e-17
84 1 0.345602 205.834 -5.55112e-17
85 1 79.058 138.759 -5.55112e-17
86 1 139.618 176.909 -5.55112e-17
87 1 83.0265 134.992 -5.55112e-17
88 1 40.237 159.704 -5.55112e-17
89 2 179.339 42.9145 -5.55112e-17
90 2 83.5868 96.4985 -5.55112e-17
91 1 128.543 205.049 -5.55112e-17
92 2 203.874 113.504 -5.55112e-17
93 1 10.6608 5.38999 -5.55112e-17
94 2 126.084 97.3396 -5.55112e-17
95 1 209.371 17.4333 -5.55112e-17
96 1 119.818 17.7074 -5.55112e-17
97 1 42.3172 94.0748 -5.55112e-17
98 1 162.558 126.728 -5.55112e-17
99 1 142.934 186.097 -5.55112e-17
100 1 89.4489 85.6067 -5.55112e-17
101 1 30.1008 19.9265 -5.55112e-17
102 1 86.6174 68.3169 -5.55112e-17
103 1 165.341 194.546 -5.55112e-17
104 1 151.865 69.9328 -5.55112e-17
105 1 57.6264 178.442 -5.55112e-17
106 1 184.852 112.525 -5.55112e-17
107 2 37.4907 42.3596 -5.55112e-17
108 1 128.161 211.745 -5.55112e-17
109 1 159.719 24.2682 -5.55112e-17
110 1 193.535 183.661 -5.55112e-17
111 1 191.795 187.328 -5.55112e-17
112 1 149.971 68.3269 -5.55112e-17
113 1 136.073 17.9537 -5.55112e-17
114 1 60.2929 141.09 -5.55112e-17
115 1 59.2461 109.418 -5.55112e-17
116 2 38.6212 87.0758 -5.55112e-17
117 1 187.196 156.31 -5.55112e-17
118 1 117.644 69.513 -5.55112e-17
119 2 114.806 172.878 -5.55112e-17
120 1 52.3097 80.6831 -5.55112e-17
121 1 14.923 146.282 -5.55112e-17
122 1 52.628 145.041 -5.55112e-17
123 1 158.594 192.493 -5.55112e-17
124 1 137.226 82.2773 -5.55112e-17
125 1 130.716 164.159 -5.55112e-17
126 1 180.626 160.716 -5.55112e-17
127 1 12.1791 17.9025 -5.55112e-17
128 1 128.788 77.3924 -5.55112e-17
129 1 212.597 102.63 -5.55112e-17
130 1 131.196 98.5834 -5.55112e-17
131 1 180.791 12.6074 -5.55112e-17
132 2 78.5862 190.19 -5.55112e-17
133 1 14.8135 96.9121 -5.55112e-17
134 1 172.858 6.34122 -5.55112e-17
135 1 192.636 121.707 -5.55112e-17
136 1 100.403 117.385 -5.55112e-17
137 1 118.67 204.958 -5.55112e-17
138 1 123.011 53.6361 -5.55112e-17
139 1 44.3621 215.856 -5.55112e-17
140 2 190.832 216.831 -5.55112e-17
141 1 71.2791 182.731 -5.55112e-17
142 2 8.64391 115.359 -5.55112e-17
143 1 133.825 98.4192 -5.55112e-17
144 2 25.7704 168.779 -5.55112e-17
145 1 178.538 102.321 -5.55112e-17
146 1 88.8514 145.025 -5.55112e-17
147 1 179.327 6.78534 -5.55112e-17
148 1 55.3661 42.0546 -5.55112e-17
149 1 213.428 163.658 -5.55112e-17
150 1 215.952 186.629 -5.55112e-17
151 1 31.5871 172.923 -5.55112e-17
152 1 187.596 111.885 -5.55112e-17
153 2 48.7033 161.278 -5.55112e-17
154 1 41.5222 67.6419 -5.55112e-17
155 1 37.7721 7.93313 -5.55112e-17
156 2 201.091 116.905 -5.55112e-17
157 1 21.3695 56.3454 -5.55112e-17
158 1 174.541 38.9036 -5.55112e-17
159 1 76.2135 180.367 -5.55112e-17
160 1 98.0161 64.0142 -5.55112e-17
161 1 64.0379 197.116 -5.55112e-17
162 1 174.795 95.4242 -5.55112e-17
163 1 58.8513 82.3231 -5.55112e-17
164 1 12.6009 67.0272 -5.55112e-17
165 1 3.4747 214.388 -5.55112e-17
166 2 105.136 62.8586 -5.55112e-17
167 1 83.3738 137.478 -5.55112e-17
168 1 28.2715 5.80102 -5.55112e-17
169 1 28.491 73.9332 -5.55112e-17
170 1 123.618 74.8374 -5.55112e-17
171 1 182.622 155.353 -5.55112e-17
172 1 198.277 9.81187 -5.55112e-17
173 1 120.509 202.866 -5.55112e-17
174 1 49.6946 89.581 -5.55112e-17
175 2 199.627 85.4828 -5.55112e-17
176 1 164.81 21.7679 -5.55112e-17
177 2 102.703 12.8695 -5.55112e-17
178 1 208.44 88.082 -5.55112e-17
179 1 26.0571 72.8122 -5.55112e-17
180 1 208.882 154.385 -5.55112e-17
181 1 108.409 154.238 -5.55112e-17
182 2 209.331 48.9777 -5.55112e-17
183 1 6.31357 174.35 -5.55112e-17
184 1 21.3576 199.459 -5.55112e-17
185 2 165.424 47.6699 -5.55112e-17
186 2 98.6486 44.2358 -5.55112e-17
187 1 167.253 179.898 -5.55112e-17
188 1 153.094 180.051 -5.55112e-17
189 1 177.22 45.6173 -5.55112e-17
190 2 158.804 198.01 -5.55112e-17
191 1 71.2939 81.9068 -5.55112e-17
192 2 126.61 148.202 -5.55112e-17
193 2 214.39 155.735 -5.55112e-17
194 1 210.923 41.5696 -5.55112e-17
195 1 152.018 192.821 -5.55112e-17
196 1 80.8097 194.118 -5.55112e-17
197 1 119.777 154.776 -5.55112e-17
198 2 41.3809 170.551 -5.55112e-17
199 1 47.488 3.54534 -5.55112e-17
200 1 70.7087 43.2534 -5.55112e-17
201 2 125.071 42.83 -5.55112e-17
202 1 125.151 18.943 -5.55112e-17
203 1 69.3752 96.2652 -5.55112e-17
204 1 113.159 196.342 -5.55112e-17
205 2 1.64876 176.313 -5.55112e-17
206 1 88.3294 4.8499 -5.55112e-17
207 1 83.5875 190.362 -5.55112e-17
208 1 194.188 68.1451 -5.55112e-17
209 1 116.79 75.1109 -5.55112e-17
210 1 128.056 160.025 -5.55112e-17
211 2 192.161 27.2113 -5.55112e-17
212 1 111.712 99.5784 -5.55112e-17
213 1 191.581 93.5067 -5.55112e-17
214 1 9.63261 49.1262 -5.55112e-17
215 1 192.267 53.5978 -5.55112e-17
216 1 181.928 44.8317 -5.55112e-17
217 1 61.7786 14.7601 -5.55112e-17
218 2 169.628 177.862 -5.55112e-17
219 1 16.8422 179.399 -5.55112e-17
220 2 3.23796 160.01 -5.55112e-17
221 1 175.996 62.0604 -5.55112e-17
222 1 160.841 202.806 -5.55112e-17
223 1 75.2967 207.832 -5.55112e-17
224 2 21.6147 214.751 -5.55112e-17
225 1 64.6345 172.185 -5.55112e-17
226 1 158.102 105.071 -5.55112e-17
227 2 3.24367 154.426 -5.55112e-17
228 1 85.8048 191.831 -5.55112e-17
229 1 165.927 61.1683 -5.55112e-17
230 1 176.067 144.766 -5.55112e-17
231 1 157.561 107.298 -5.55112e-17
232 1 100.69 51.7473 -5.55112e-17
233 1 176.838 38.2099 -5.55112e-17
234 1 173.694 21.9822 -5.55112e-17
235 1 39.6662 78.1129 -5.55112e-17
236 1 164.703 112.095 -5.55112e-17
237 1 74.0238 37.8608 -5.55112e-17
238 1 86.1061 132.269 -5.55112e-17
239 2 22.6146 129.438 -5.55112e-17
240 1 146.372 59.3126 -5.55112e-17
241 2 74.8559 115.213 -5.55112e-17
242 2 73.9899 5.23823 -5.55112e-17
243 2 67.599 214.079 -5.55112e-17
244 1 75.2787 0.10435 -5.55112e-17
245 1 103.661 153.816 -5.55112e-17
246 1 95.408 217.397 -5.55112e-17
247 1 185.041 78.7203 -5.55112e-17
248 1 108.582 128.849 -5.55112e-17
249 1 191.43 16.8657 -5.55112e-17
250 2 95.5445 14.5308 -5.55112e-17
251 1 140.458 30.598 -5.55112e-17
252 1 96.5392 34.5289 -5.55112e-17
253 1 72.9605 124.126 -5.55112e-17
254 2 90.7387 195.287 -5.55112e-17
255 1 58.4779 53.1875 -5.55112e-17
256 1 206.496 165.147 -5.55112e-17
257 1 79.0121 82.4353 -5.55112e-17
258 2 46.9006 23.7813 -5.55112e-17
259 1 170.957 218.758 -5.55112e-17
260 1 13.3262 143.488 -5.55112e-17
261 1 123.091 144.253 -5.55112e-17
262 1 195.839 89.2203 -5.55112e-17
263 1 114.003 26.6902 -5.55112e-17
264 1 62.3032 171.969 -5.55112e-17
265 1 138.241 199.797 -5.55112e-17
266 1 131.632 85.7876 -5.55112e-17
267 1 150.745 154.754 -5.55112e-17
268 1 61.1664 178.748 -5.55112e-17
269 1 96.5724 29.8134 -5.55112e-17
270 1 38.151 74.8704 -5.55112e-17
271 1 34.8434 62.5636 -5.55112e-17
272 1 182.635 165.098 -5.55112e-17
273 1 47.618 133.445 -5.55112e-17
274 2 175.224 113.041 -5.55112e-17
275 1 49.2272 92.1261 -5.55112e-17
276 2 133.258 65.4943 -5.55112e-17
277 2 185.222 30.1445 -5.55112e-17
278 1 207.189 4.65729 -5.55112e-17
279 2 170.68 54.5461 -5.55112e-17
280 1 114.615 198.355 -5.55112e-17
281 1 158.269 180.928 -5.55112e-17
282 1 5.39253 0.148262 -5.55112e-17
283 1 202.225 163.947 -5.55112e-17
284 1 97.0289 164.248 -5.55112e-17
285 1 217.847 34.652 -5.55112e-17
286 2 78.9775 21.9298 -5.55112e-17
287 1 104.944 125.596 -5.55112e-17
288 1 66.3952 183.18 -5.55112e-17
289 1 39.2911 6.02527 -5.55112e-17
290 1 165.422 162.572 -5.55112e-17
291 1 66.7069 56.109 -5.55112e-17
292 2 176.323 107.388 -5.55112e-17
293 2 60.0125 117.249 -5.55112e-17
294 1 145.953 167.237 -5.55112e-17
295 1 99.1465 53.7407 -5.55112e-17
296 1 56.427 11.4499 -5.55112e-17
297 1 174.94 176.671 -5.55112e-17
298 1 121.871 49.6208 -5.55112e-17
299 1 110.053 188.95 -5.55112e-17
300 2 145.123 67.3052 -5.55112e-17
301 1 136.911 58.7935 -5.55112e-17
302 1 97.8187 218.677 -5.55112e-17
303 2 80.5942 24.4145 -5.55112e-17
304 2 53.316 58.4319 -5.55112e-17
305 1 63.2313 216.693 -5.55112e-17
306 1 140.197 132.084 -5.55112e-17
307 1 23.913 171.158 -5.55112e-17
308 1 139.393 113.534 -5.55112e-17
309 2 135.452 165.98 -5.55112e-17
310 1 33.8313 210.164 -5.55112e-17
311 1 205.785 143.998 -5.55112e-17
312 1 6.64118 154.802 -5.55112e-17
313 2 163.396 42.9612 -5.55112e-17
314 1 10.289 181.291 -5.55112e-17
315 1 158.707 141.519 -5.55112e-17
316 1 134.422 19.6063 -5.55112e-17
317 1 119.023 157.322 -5.55112e-17
318 1 111.753 213.973 -5.55112e-17
319 1 98.9615 170.8 -5.55112e-17
320 1 204.908 217.869 -5.55112e-17
321 1 52.9842 207.161 -5.55112e-17
322 1 102.642 110.299 -5.55112e-17
323 1 48.7607 34.3624 -5.55112e-17
324 1 146.673 141.978 -5.55112e-17
325 1 109.354 146.166 -5.55112e-17
326 1 49.3588 166.366 -5.55112e-17
327 2 120.062 131.252 -5.55112e-17
328 1 69.6405 74.441 -5.55112e-17
329 2 57.7602 55.8936 -5.55112e-17
330 1 5.52815 201.949 -5.55112e-17
331 1 149.723 45.1646 -5.55112e-17
332 2 143.405 28.5074 -5.55112e-17
333 1 9.83668 122.992 -5.55112e-17
334 1 146.785 124.846 -5.55112e-17
335 1 186.527 129.068 -5.55112e-17
336 1 1.19843 102.699 -5.55112e-17
337 1 21.4982 20.4473 -5.55112e-17
338 1 167.946 59.5252 -5.55112e-17
339 1 15.83 218.751 -5.55112e-17
340 1 76.3212 205.373 -5.55112e-17
341 1 215.491 214.298 -5.55112e-17
342 1 181.601 130.865 -5.55112e-17
343 1 148.331 88.2136 -5.55112e-17
344 1 74.4332 46.0423 -5.55112e-17
345 1 80.6137 16.4669 -5.55112e-17
346 1 205.8 61.5948 -5.55112e-17
347 1 47.9324 74.7642 -5.55112e-17
348 1 102.248 95.5559 -5.55112e-17
349 1 194.825 86.9173 -5.55112e-17
350 2 104.747 7.26092 -5.55112e-17
351 1 56.4691 167.689 -5.55112e-17
352 1 33.1646 14.844 -5.55112e-17
353 1 92.3205 90.6092 -5.55112e-17
354 1 113.875 12.6427 -5.55112e-17
355 1 160.962 218.608 -5.55112e-17
356 1 136.496 160.399 -5.55112e-17
357 1 107.58 200.299 -5.55112e-17
358 1 83.6767 43.5006 -5.55112e-17
359 1 78.2907 143.184 -5.55112e-17
360 1 18.2344 88.0946 -5.55112e-17
361 1 171.53 198.093 -5.55112e-17
362 1 20.2706 175.104 -5.55112e-17
363 1 215.031 136.567 -5.55112e-17
364 2 20.355 51.0868 -5.55112e-17
365 1 69.1527 109.15 -5.55112e-17
366 1 190.621 107.46 -5.55112e-17
367 1 56.0483 81.5065 -5.55112e-17
368 1 50.3811 53.2891 -5.55112e-17
369 2 71.1906 119.23 -5.55112e-17
370 1 142.519 44.3008 -5.55112e-17
371 1 91.049 6.79162 -5.55112e-17
372 2 155.531 17.7472 -5.55112e-17
373 2 149.535 117.631 -5.55112e-17
374 1 86.2026 3.7648 -5.55112e-17
375 1 118.009 13.5383 -5.55112e-17
376 1 16.8688 136.84 -5.55112e-17
377 1 115.258 184.903 -5.55112e-17
378 1 212.26 58.5122 -5.55112e-17
379 1 36.6936 66.7106 -5.55112e-17
380 1 163.098 182.735 -5.55112e-17
381 1 183.004 11.4121 -5.55112e-17
382 1 146.121 96.3826 -5.55112e-17
383 1 73.398 35.1992 -5.55112e-17
384 1 153.263 149.358 -5.55112e-17
385 1 55.4474 65.9638 -5.55112e-17
386 2 187.237 25.4341 -5.55112e-17
387 1 31.5002 128.45 -5.55112e-17
388 1 157.193 89.6347 -5.55112e-17
389 1 71.4196 65.622 -5.55112e-17
390 2 193.491 211.403 -5.55112e-17
391 2 203.75 169.705 -5.55112e-17
392 1 175.279 184.505 -5.55112e-17
393 1 37.6372 122.968 -5.55112e-17
394 1 109.172 217.879 -5.55112e-17
395 1 61.2931 131.245 -5.55112e-17
396 1 86.0744 217.304 -5.55112e-17
397 1 87.9664 78.2475 -5.55112e-17
398 1 135.06 89.5918 -5.55112e-17
399 1 3.27334 148.349 -5.55112e-17
400 1 90.1414 140.878 -5.55112e-17
401 1 55.3907 188.327 -5.55112e-17
402 2 79.6416 49.3306 -5.55112e-17
403 1 23.706 126.875 -5.55112e-17
404 1 41.7586 176.424 -5.55112e-17
405 1 133.811 178.473 -5.55112e-17
406 1 30.2418 121.553 -5.55112e-17
407 2 1.21198 164.431 -5.55112e-17
408 1 99.907 1.01869 -5.55112e-17
409 1 22.1626 117.807 -5.55112e-17
410 1 19.1447 148.355 -5.55112e-17
411 1 34.1736 201.946 -5.55112e-17
412 1 131.825 116.541 -5.55112e-17
413 1 89.6602 135.766 -5.55112e-17
414 1 71.7298 116.517 -5.55112e-17
415 1 125.405 143.169 -5.55112e-17
416 1 76.5264 112.831 -5.55112e-17
417 1 107.569 184.484 -5.55112e-17
418 2 64.5871 66.4734 -5.55112e-17
419 1 100.634 37.167 -5.55112e-17
420 2 12.0408 72.7427 -5.55112e-17
421 1 126.589 161.699 -5.55112e-17
422 1 10.5366 199.182 -5.55112e-17
423 2 32.9226 126.038 -5.55112e-17
424 1 143.036 21.1533 -5.55112e-17
425 1 147.952 20.9046 -5.55112e-17
426 1 161.839 190.995 -5.55112e-17
427 1 205.64 44.3166 -5.55112e-17
428 1 105.02 214.691 -5.55112e-17
429 1 149.935 22.5005 -5.55112e-17
430 1 172.533 185.098 -5.55112e-17
431 1 0.92685 20.0828 -5.55112e-17
432 1 128.921 58.4477 -5.55112e-17
433 1 148.453 186.102 -5.55112e-17
434 1 73.558 141.912 -5.55112e-17
435 1 155.885 173.781 -5.55112e-17
436 1 167.134 18.3065 -5.55112e-17
437 1 24.0994 122.821 -5.55112e-17
438 2 114.625 73.3645 -5.55112e-17
439 1 68.9597 36.4781 -5.55112e-17
440 1 31.673 142.171 -5.55112e-17
441 1 113.024 175.615 -5.55112e-17
442 1 181.575 76.6443 -5.55112e-17
443 1 84.748 151.928 -5.55112e-17
444 1 53.6604 142.68 -5.55112e-17
445 1 104.754 212.074 -5.55112e-17
446 1 216.148 104.6 -5.55112e-17
447 1 16.7983 41.1191 -5.55112e-17
448 1 119.04 187.676 -5.55112e-17
449 1 120.716 51.9482 -5.55112e-17
450 1 123.652 67.0834 -5.55112e-17
451 1 199.586 110.22 -5.55112e-17
452 1 131.108 136.669 -5.55112e-17
453 1 91.0265 183.61 -5.55112e-17
454 1 160.98 98.6134 -5.55112e-17
455 1 91.2587 80.9479 -5.55112e-17
456 1 96.634 144.978 -5.55112e-17
457 1 203.273 44.3208 -5.55112e-17
458 1 134.54 206.152 -5.55112e-17
459 1 164.666 167.231 -5.55112e-17
460 1 61.5195 98.4587 -5.55112e-17
461 1 43.5893 80.7522 -5.55112e-17
462 1 15.8052 204.234 -5.55112e-17
463 1 80.0123 152.919 -5.55112e-17
464 1 148.02 122.599 -5.55112e-17
465 1 206.382 167.904 -5.55112e-17
466 1 177.52 217.383 -5.55112e-17
467 1 212.795 114.74 -5.55112e-17
468 1 70.6456 124.733 -5.55112e-17
469 1 165.859 58.2252 -5.55112e-17
470 1 39.123 60.4336 -5.55112e-17
471 1 214.822 190.982 -5.55112e-17
472 1 162.195 113.197 -5.55112e-17
473 1 202.799 153.286 -5.55112e-17
474 1 140.088 210.464 -5.55112e-17
475 1 37.0364 158.959 -5.55112e-17
476 2 16.7723 187.462 -5.55112e-17
477 1 166.72 176.995 -5.55112e-17
478 1 194.914 105.422 -5.55112e-17
479 1 158.412 157.529 -5.55112e-17
480 1 115.867 93.8249 -5.55112e-17
481 1 210.132 130.885 -5.55112e-17
482 1 66.9131 211.287 -5.55112e-17
483 1 31.9894 25.6187 -5.55112e-17
484 2 133.08 124.537 -5.55112e-17
485 1 197.646 170.642 -5.55112e-17
486 1 17.3205 33.1527 -5.55112e-17
487 1 104.912 109.286 -5.55112e-17
488 1 19.0071 56.65 -5.55112e-17
489 1 194.269 214.076 -5.55112e-17
490 1 17.5157 90.2452 -5.55112e-17
491 1 151.555 139.384 -5.55112e-17
492 1 122.665 93.4164 -5.55112e-17
493 1 75.2075 214.413 -5.55112e-17
494 1 146.664 139.286 -5.55112e-17
495 1 200.868 43.9229 -5.55112e-17
496 2 3.52864 124.468 -5.55112e-17
497 1 186.775 186.044 -5.55112e-17
498 1 191.486 206.271 -5.55112e-17
499 2 142.753 77.2555 -5.55112e-17
500 1 29.2296 137.897 -5.55112e-17
501 2 22.2817 163.513 -5.55112e-17
502 2 39.1908 178.023 -5.55112e-17
503 1 120.663 158.897 -5.55112e-17
504 1 146.482 192.939 -5.55112e-17
505 1 17.0605 190.849 -5.55112e-17
506 1 3.97496 101.785 -5.55112e-17
507 1 172.068 161.169 -5.55112e-17
508 1 67.8868 86.332 -5.55112e-17
509 2 55.3009 147.823 -5.55112e-17
510 2 158.367 154.624 -5.55112e-17
511 1 69.656 0.757604 -5.55112e-17
512 2 102.159 165.308 -5.55112e-17
513 1 65.089 69.174 -5.55112e-17
514 1 0.520355 53.2722 -5.55112e-17
515 1 127.651 30.7158 -5.55112e-17
516 1 200.675 165.699 -5.55112e-17
517 1 154.692 3.1016 -5.55112e-17
518 2 177.056 87.9541 -5.55112e-17
519 1 90.6595 120.701 -5.55112e-17
520 2 177.588 15.4179 -5.55112e-17
521 1 76.2053 55.9973 -5.55112e-17
522 1 115.418 138.082 -5.55112e-17
523 1 48.7347 178.62 -5.55112e-17
524 1 207.1 54.1503 -5.55112e-17
525 1 8.1377 205.964 -5.55112e-17
526 1 195.709 112.291 -5.55112e-17
527 1 110.363 67.9176 -5.55112e-17
528 1 75.1018 91.2468 -5.55112e-17
529 1 113.539 120.129 -5.55112e-17
530 1 73.9034 203.51 -5.55112e-17
531 1 14.3994 141.522 -5.55112e-17
532 1 54.9783 150.85 -5.55112e-17
533 1 127.653 63.1792 -5.55112e-17
534 1 209.622 200.039 -5.55112e-17
535 1 14.2875 68.8336 -5.55112e-17
536 1 170.007 33.2207 -5.55112e-17
537 1 56.2593 29.115 -5.55112e-17
538 1 145.422 40.8391 -5.55112e-17
539 1 19.0763 2.61869 -5.55112e-17
540 1 38.7661 157.205 -5.55112e-17
541 1 24.3757 189.773 -5.55112e-17
542 1 94.9751 187.91 -5.55112e-17
543 1 48.5563 48.5526 -5.55112e-17
544 1 165.595 11.5549 -5.55112e-17
545 1 32.3418 181.504 -5.55112e-17
546 1 122.599 190.67 -5.55112e-17
547 1 22.3256 32.666 -5.55112e-17
548 1 1.85954 173.369 -5.55112e-17
549 1 73.5024 104 -5.55112e-17
550 2 209.028 71.1263 -5.55112e-17
551 2 100.536 26.6824 -5.55112e-17
552 2 114.634 169.007 -5.55112e-17
553 1 114.255 106.458 -5.55112e-17
554 1 46.5015 192.65 -5.55112e-17
555 2 105.782 82.0039 -5.55112e-17
556 1 212.031 17.0565 -5.55112e-17
557 1 95.736 154.615 -5.55112e-17
558 1 174.61 129.957 -5.55112e-17
559 1 10.1801 81.1769 -5.55112e-17
560 1 172.398 80.9034 -5.55112e-17
561 1 34.0334 129.039 -5.55112e-17
562 1 216.267 56.3573 -5.55112e-17
563 2 151.084 134.24 -5.55112e-17
564 1 184.528 134.989 -5.55112e-17
565 1 209.845 21.6058 -5.55112e-17
566 1 170.162 57.6992 -5.55112e-17
567 1 107.496 213.63 -5.55112e-17
568 1 155.661 8.09392 -5.55112e-17
569 1 61.6912 65.9316 -5.55112e-17
570 1 130.859 37.6113 -5.55112e-17
571 1 152.755 98.8618 -5.55112e-17
572 1 142.653 90.0089 -5.55112e-17
573 1 67.173 91.6852 -5.55112e-17
574 1 183.3 118.407 -5.55112e-17
575 1 11.6957 9.6147 -5.55112e-17
576 1 204.716 151.839 -5.55112e-17
577 1 122.52 79.935 -5.55112e-17
578 1 154.03 194.335 -5.55112e-17
579 1 68.6022 88.6133 -5.55112e-17
580 1 189.301 41.941 -5.55112e-17
581 1 185.388 142.008 -5.55112e-17
582 1 13.1827 48.8955 -5.55112e-17
583 1 100.06 204.264 -5.55112e-17
584 2 14.0725 46.2182 -5.55112e-17
585 1 98.4422 113.36 -5.55112e-17
586 1 109.604 6.68666 -5.55112e-17
587 1 61.9428 183.591 -5.55112e-17
588 1 196.02 184.061 -5.55112e-17
589 1 160.074 207.553 -5.55112e-17
590 1 56.1237 157.705 -5.55112e-17
591 1 92.9631 158.382 -5.55112e-17
592 1 66.7808 53.727 -5.55112e-17
593 1 120.127 209.326 -5.55112e-17
594 1 176.604 104.329 -5.55112e-17
595 1 12.5112 96.8158 -5.55112e-17
596 1 78.8534 43.9665 -5.55112e-17
597 2 100.278 141.269 -5.55112e-17
598 1 187.994 150.987 -5.55112e-17
599 1 187.954 141.23 -5.55112e-17
600 1 96.6179 53.7991 -5.55112e-17
601 1 24.78 131.499 -5.55112e-17
602 1 189.132 205.541 -5.55112e-17
603 1 162.039 166.563 -5.55112e-17
604 1 210.803 213.413 -5.55112e-17
605 2 130.314 150.249 -5.55112e-17
606 1 151.667 206.616 -5.55112e-17
607 2 214.337 51.1507 -5.55112e-17
608 1 187.808 119.536 -5.55112e-17
609 1 174.292 135.405 -5.55112e-17
610 1 132.433 180.339 -5.55112e-17
611 1 64.4194 148.724 -5.55112e-17
612 1 215.949 7.30183 -5.55112e-17
613 1 34.6903 21.2207 -5.55112e-17
614 2 67.8658 193.72 -5.55112e-17
615 1 101.368 88.1046 -5.55112e-17
616 1 43.0976 100.16 -5.55112e-17
617 1 46.8116 206.508 -5.55112e-17
618 1 184.551 197.45 -5.55112e-17
619 1 84.2547 51.829 -5.55112e-17
620 1 50.6463 26.9396 -5.55112e-17
621 1 108.132 63.2188 -5.55112e-17
622 1 3.59423 17.2356 -5.55112e-17
623 1 189.41 9.77899 -5.55112e-17
624 1 26.8483 68.8744 -5.55112e-17
625 1 41.205 145.604 -5.55112e-17
626 1 53.3599 195.161 -5.55112e-17
627 1 3.13568 110.408 -5.55112e-17
628 1 0.385244 10.2023 -5.55112e-17
629 1 113.035 101.886 -5.55112e-17
630 2 113.097 201.271 -5.55112e-17
631 1 179.704 121.737 -5.55112e-17
632 1 203.493 215.852 -5.55112e-17
633 1 197.96 182.315 -5.55112e-17
634 1 140.428 163.537 -5.55112e-17
635 1 209.047 150.09 -5.55112e-17
636 1 161.496 28.4227 -5.55112e-17
637 1 192.308 32.1776 -5.55112e-17
638 1 194.408 135.752 -5.55112e-17
639 2 110.695 34.751 -5.55112e-17
640 1 168.026 54.0405 -5.55112e-17
641 1 83.5166 10.6298 -5.55112e-17
642 1 152.919 215.766 -5.55112e-17
643 2 46.8767 90.3941 -5.55112e-17
644 1 203.625 129.662 -5.55112e-17
645 1 216.755 96.5959 -5.55112e-17
646 2 26.317 182.858 -5.55112e-17
647 1 24.0822 27.9811 -5.55112e-17
648 1 67.3154 67.4331 -5.55112e-17
649 2 161.526 140.318 -5.55112e-17
650 1 74.3398 61.077 -5.55112e-17
651 1 64.6398 73.6 -5.55112e-17
652 1 148.968 173.149 -5.55112e-17
653 1 11.1043 75.9343 -5.55112e-17
654 1 28.5059 198.575 -5.55112e-17
655 2 153.942 127.202 -5.55112e-17
656 1 117.652 16.213 -5.55112e-17
657 2 95.0316 85.3849 -5.55112e-17
658 1 139.373 58.2955 -5.55112e-17
659 2 149.017 63.2677 -5.55112e-17
660 1 144.941 112.04 -5.55112e-17
661 1 6.31015 198.283 -5.55112e-17
662 1 6.67538 216.636 -5.55112e-17
663 1 115.408 46.213 -5.55112e-17
664 1 201.402 111.835 -5.55112e-17
665 1 86.2293 153.845 -5.55112e-17
666 2 131.752 82.4772 -5.55112e-17
667 1 50.9295 33.0038 -5.55112e-17
668 2 193.037 113.289 -5.55112e-17
669 1 189.837 32.9624 -5.55112e-17
670 1 38.8837 15.3269 -5.55112e-17
671 2 51.6767 192.218 -5.55112e-17
672 1 197.418 91.2592 -5.55112e-17
673 1 177.372 79.6192 -5.55112e-17
674 1 92.9383 124.729 -5.55112e-17
675 1 18.5146 7.66213 -5.55112e-17
676 1 109.884 19.2482 -5.55112e-17
677 1 203.14 211.244 -5.55112e-17
678 1 177.753 10.16 -5.55112e-17
679 2 66.0141 204.293 -5.55112e-17
680 1 79.7015 70.0976 -5.55112e-17
681 2 36.2565 10.4581 -5.55112e-17
682 1 202.323 150.493 -5.55112e-17
683 1 45.5295 213.456 -5.55112e-17
684 1 5.71612 214.286 -5.55112e-17
685 1 161.832 70.7403 -5.55112e-17
686 1 95.3034 157.178 -5.55112e-17
687 1 142.352 196.552 -5.55112e-17
688 1 182.323 215.153 -5.55112e-17
689 2 56.3319 108.681 -5.55112e-17
690 1 111.434 186.788 -5.55112e-17
691 1 176.323 71.828 -5.55112e-17
692 1 174.258 151.378 -5.55112e-17
693 1 30.0184 160.426 -5.55112e-17
694 1 17.6066 78.6346 -5.55112e-17
695 1 206.889 173.21 -5.55112e-17
696 1 83.7997 170.511 -5.55112e-17
697 1 194.97 81.9388 -5.55112e-17
698 1 16.8129 94.7524 -5.55112e-17
699 1 118.166 39.7582 -5.55112e-17
700 1 113.587 91.8362 -5.55112e-17
701 1 210.795 78.0914 -5.55112e-17
702 1 130.634 212.38 -5.55112e-17
703 2 43.3054 56.866 -5.55112e-17
704 1 95.1299 40.8712 -5.55112e-17
705 2 2.86115 99.3163 -5.55112e-17
706 1 135.545 56.6092 -5.55112e-17
707 1 115.794 148.999 -5.55112e-17
708 1 102.27 174.697 -5.55112e-17
709 1 21.2548 85.2021 -5.55112e-17
710 1 197.211 6.98046 -5.55112e-17
711 1 38.3084 135.593 -5.55112e-17
712 1 164.263 24.5971 -5.55112e-17
713 1 100.919 172.893 -5.55112e-17
714 1 143.734 18.666 -5.55112e-17
715 1 100.208 201.512 -5.55112e-17
716 1 74.1137 216.934 -5.55112e-17
717 1 10.3857 157.377 -5.55112e-17
718 1 44.3519 107.199 -5.55112e-17
719 2 94.4905 103.641 -5.55112e-17
720 1 148.467 115.182 -5.55112e-17
721 1 216.914 127.303 -5.55112e-17
722 1 46.8786 113.805 -5.55112e-17
723 2 210.314 34.2879 -5.55112e-17
724 1 160.89 104.171 -5.55112e-17
725 1 157.698 207.809 -5.55112e-17
726 1 2.73457 28.8842 -5.55112e-17
727 1 100.019 195.558 -5.55112e-17
728 2 203.283 195.192 -5.55112e-17
729 1 48.221 150.332 -5.55112e-17
730 1 140.376 198.052 -5.55112e-17
731 1 216.077 120.234 -5.55112e-17
732 1 127.454 94.7012 -5.55112e-17
733 1 31.9448 33.5616 -5.55112e-17
734 1 158.75 102.835 -5.55112e-17
735 1 21.9937 173.08 -5.55112e-17
736 2 49.8817 202.348 -5.55112e-17
737 1 83.3797 207.747 -5.55112e-17
738 1 179.292 171.519 -5.55112e-17
739 1 205.551 193.535 -5.55112e-17
740 1 39.7311 137.708 -5.55112e-17
741 2 5.92882 58.4126 -5.55112e-17
742 1 190.624 198.11 -5.55112e-17
743 1 71.6442 204.868 -5.55112e-17
744 2 115.503 31.1635 -5.55112e-17
745 1 71.5205 210.178 -5.55112e-17
746 1 64.0074 184.573 -5.55112e-17
747 2 85.1483 89.1463 -5.55112e-17
748 1 78.8366 2.83048 -5.55112e-17
749 1 108.614 12.2919 -5.55112e-17
750 1 38.7317 140.142 -5.55112e-17
751 1 87.9316 66.3917 -5.55112e-17
752 1 183.394 199.804 -5.55112e-17
753 1 36.2337 31.0213 -5.55112e-17
754 1 3.28271 36.0966 -5.55112e-17
755 1 210.794 100.543 -5.55112e-17
756 2 3.20989 206.294 -5.55112e-17
757 1 216.983 132.277 -5.55112e-17
758 1 87.4523 168.169 -5.55112e-17
759 1 34.6601 180.8 -5.55112e-17
760 1 161.603 2.20073 -5.55112e-17
761 1 138.372 95.3842 -5.55112e-17
762 1 44.7061 54.0443 -5.55112e-17
763 1 86.9236 108.576 -5.55112e-17
764 2 13.3382 149.133 -5.55112e-17
765 1 178.261 200.865 -5.55112e-17
766 1 49.9181 9.12114 -5.55112e-17
767 1 57.483 125.255 -5.55112e-17
768 1 207.971 19.6121 -5.55112e-17
769 1 207.357 80.7127 -5.55112e-17
770 2 18.877 107.064 -5.55112e-17
771 1 52.6087 70.3671 -5.55112e-17
772 1 4.87191 108.675 -5.55112e-17
773 1 122.377 42.1422 -5.55112e-17
774 1 162.843 188.723 -5.55112e-17
775 1 69.1416 29.5431 -5.55112e-17
776 1 122.952 82.3933 -5.55112e-17
777 1 82.0349 21.9662 -5.55112e-17
778 1 33.601 85.1987 -5.55112e-17
779 1 94.7485 165.503 -5.55112e-17
780 1 195.025 60.5909 -5.55112e-17
781 1 2.55796 72.2735 -5.55112e-17
782 1 59.6121 72.9701 -5.55112e-17
783 1 167.252 125.666 -5.55112e-17
784 2 111.977 52.7902 -5.55112e-17
785 1 81.8377 178.508 -5.55112e-17
786 1 75.5153 148.557 -5.55112e-17
787 1 206.024 115.444 -5.55112e-17
788 1 174.359 92.96 -5.55112e-17
789 2 218.957 58.1198 -5.55112e-17
790 1 205.803 128.28 -5.55112e-17
791 2 100.729 168.142 -5.55112e-17
792 2 32.1425 131.173 -5.55112e-17
793 2 143.91 159.898 -5.55112e-17
794 1 51.1099 48.7878 -5.55112e-17
795 1 65.7421 157.437 -5.55112e-17
796 1 130.869 145.345 -5.55112e-17
797 1 61.6648 181.101 -5.55112e-17
798 2 129.804 121.976 -5.55112e-17
799 2 19.3172 209.284 -5.55112e-17
800 2 97.6546 50.8619 -5.55112e-17
801 1 161.224 10.6518 -5.55112e-17
802 1 116.324 77.3982 -5.55112e-17
803 1 44.1607 194.23 -5.55112e-17
804 2 112.147 21.4348 -5.55112e-17
805 1 142.895 123.003 -5.55112e-17
806 1 33.7135 140.489 -5.55112e-17
807 2 217.313 2.7535 -5.55112e-17
808 1 67.8562 199.009 -5.55112e-17
809 2 47.5197 181.24 -5.55112e-17
810 1 135.3 44.5634 -5.55112e-17
811 1 54.6652 193.258 -5.55112e-17
812 1 35.992 217.427 -5.55112e-17
813 2 0.328772 149.686 -5.55112e-17
814 1 86.3574 63.5846 -5.55112e-17
815 1 175.104 34.0154 -5.55112e-17
816 1 55.5558 214.776 -5.55112e-17
817 1 59.044 62.7417 -5.55112e-17
818 1 27.7034 119.79 -5.55112e-17
819 1 59.3892 171.011 -5.55112e-17
820 1 106.802 146.84 -5.55112e-17
821 1 47.1505 85.3298 -5.55112e-17
822 2 59.2848 133.034 -5.55112e-17
823 2 187.631 79.7142 -5.55112e-17
824 1 42.7777 206.452 -5.55112e-17
825 1 32.0101 30.7683 -5.55112e-17
826 1 162.527 124.379 -5.55112e-17
827 1 34.4215 119.068 -5.55112e-17
828 1 33.5214 17.0852 -5.55112e-17
829 1 95.5619 106.235 -5.55112e-17
830 1 201.507 135.899 -5.55112e-17
831 1 16.8633 152.801 -5.55112e-17
832 1 123.72 51.2965 -5.55112e-17
833 1 17.9896 75.6669 -5.55112e-17
834 1 195.162 30.9424 -5.55112e-17
835 1 33.5007 149.629 -5.55112e-17
836 1 86.6105 129.915 -5.55112e-17
837 1 133.881 118.045 -5.55112e-17
838 1 104.917 55.0322 -5.55112e-17
839 2 160.168 122.507 -5.55112e-17
840 1 85.2449 49.657 -5.55112e-17
841 2 93.6445 178.873 -5.55112e-17
842 1 107.075 14.324 -5.55112e-17
843 2 74.3868 211.743 -5.55112e-17
844 1 6.44503 138.631 -5.55112e-17
845 1 84.976 202.597 -5.55112e-17
846 1 110.7 150.763 -5.55112e-17
847 1 146.79 175.085 -5.55112e-17
848 1 196.481 212.679 -5.55112e-17
849 1 203.389 10.1593 -5.55112e-17
850 1 41.372 86.0211 -5.55112e-17
851 1 191.359 159.105 -5.55112e-17
852 1 88.4342 157.654 -5.55112e-17
853 1 172.427 131.352 -5.55112e-17
854 1 102.719 115.727 -5.55112e-17
855 1 192.043 214.415 -5.55112e-17
856 1 163.483 203.495 -5.55112e-17
857 1 151.651 94.0014 -5.55112e-17