ITEM: TIMESTEP
0
ITEM: NUMBER OF ATOMS
7200
ITEM: BOX BOUNDS xy xz yz pp pp pp
0.0000000000000000e+00 2.1900000000000000e+02 0.0000000000000000e+00
0.0000000000000000e+00 2.1900000000000000e+02 0.0000000000000000e+00
-3.6499999999999999e-01 3.6499999999999999e-01 0.0000000000000000e+00
ITEM: ATOMS id type x y z
1 1 108.614 133.343 -5.55112e-17
2 1 113.001 15.3104 -5.55112e-17
3 1 204.814 5.44209 -5.55112e-17
4 1 98.0231 59.9312 -5.55112e-17
5 1 52.956 117.08 -5.55112e-17
6 1 20.4237 81.2821 -5.55112e-17
7 1 27.3532 8.41317 -5.55112e-17
8 2 217.554 201.741 -5.55112e-17
9 1 197.12 25.7875 -5.55112e-17
10 2 88.5128 153.945 -5.55112e-17
11 1 3.38845 0.489683 -5.55112e-17
12 1 197.955 206.869 -5.55112e-17
13 2 69.5133 188.197 -5.55112e-17
14 1 171.937 91.174 -5.55112e-17
15 1 157.424 150.667 -5.55112e-17
16 2 195.188 102.811 -5.55112e-17
17 1 173.29 89.4411 -5.55112e-17
18 2 207.216 56.4953 -5.55112e-17
19 1 148.878 111.79 -5.55112e-17
20 1 20.9453 145.222 -5.55112e-17
21 1 29.9806 207.619 -5.55112e-17
22 2 28.3066 25.8823 -5.55112e-17
23 2 42.9385 200.762 -5.55112e-17
24 1 101.361 89.8642 -5.55112e-17
25 1 31.4538 184.073 -5.55112e-17
26 2 12.0527 84.3897 -5.55112e-17
27 1 64.9428 162.542 -5.55112e-17
28 2 214.432 175.046 -5.55112e-17
29 1 212.216 15.3293 -5.55112e-17
30 1 214.05 64.8721 -5.55112e-17
31 1 56.1931 29.8452 -5.55112e-17
32 1 183.904 161.442 -5.55112e-17
33 1 44.3438 96.4498 -5.55112e-17
34 1 86.659 125.365 -5.55112e-17
35 1 174.722 78.5844 -5.55112e-17
36 1 103.524 81.8016 -5.55112e-17
37 2 151.797 126.343 -5.55112e-17
38 1 147.777 158.47 -5.55112e-17
39 1 200.693 129.235 -5.55112e-17
40 1 142.845 188.676 -5.55112e-17
41 1 130.705 111.413 -5.55112e-17
42 1 95.0034 52.4466 -5.55112e-17
43 1 5.12389 63.2895 -5.55112e-17
44 1 178.837 0.844056 -5.55112e-17
45 1 208.943 102.212 -5.55112e-17
46 1 198.775 171.61 -5.55112e-17
47 1 19.8908 143.358 -5.55112e-17
48 2 2.73935 108.985 -5.55112e-17
49 1 182.228 85.8214 -5.55112e-17
50 1 183.726 19.818 -5.55112e-17
51 1 75.6088 123.572 -5.55112e-17
52 1 137.054 211.84 -5.55112e-17
53 1 75.8993 47.5172 -5.55112e-17
54 1 157.932 35.9956 -5.55112e-17
55 1 163.676 208.7 -5.55112e-17
56 1 52.3519 139.726 -5.55112e-17
57 2 204.331 177.948 -5.55112e-17
58 1 22.4333 40.6596 -5.55112e-17
59 1 199.205 133.079 -5.55112e-17
60 2 120.133 80.3992 -5.55112e-17
61 2 14.6745 101.048 -5.55112e-17
62 1 38.2955 37.3888 -5.55112e-17
63 1 56.9 83.372 -5.55112e-17
64 1 155.361 31.9184 -5.55112e-17
65 1 165.374 168.192 -5.55112e-17
66 1 185.626 124.228 -5.55112e-17
67 1 0.392402 64.0674 -5.55112e-17
68 1 163.232 129.236 -5.55112e-17
69 1 8.54878 105.494 -5.55112e-17
70 1 36.0529 75.7299 -5.55112e-17
71 1 3.58447 215.625 -5.55112e-17
72 1 210.376 89.5857 -5.55112e-17
73 1 96.7168 131.724 -5.55112e-17
74 1 75.6293 129.605 -5.55112e-17
75 2 129.861 18.6666 -5.55112e-17
76 1 76.3097 170.973 -5.55112e-17
77 1 108.746 52.9253 -5.55112e-17
78 1 76.0492 68.6793 -5.55112e-17
79 2 215.751 159.179 -5.55112e-17
80 1 8.04209 113.924 -5.55112e-17
81 1 23.0137 169.095 -5.55112e-17
82 1 212.772 17.7027 -5.55112e-17
83 2 162.45 203.117 -5.55112e-17
84 1 178.302 102.918 -5.55112e-17
85 1 199.453 184.08 -5.55112e-17
86 1 88.9829 18.2716 -5.55112e-17
87 1 94.6158 203.48 -5.55112e-17
88 1 159.041 113.388 -5.55112e-17
89 2 103.783 107.642 -5.55112e-17
90 2 169.897 97.7763 -5.55112e-17
91 1 142.612 49.68 -5.55112e-17
92 2 163.443 103.029 -5.55112e-17
93 1 8.87795 90.1159 -5.55112e-17
94 2 189.576 128.343 -5.55112e-17
95 1 150.351 20.471 -5.55112e-17
96 1 135.466 165.131 -5.55112e-17
97 1 109.563 211.566 -5.55112e-17
98 1 33.0998 101.755 -5.55112e-17
99 1 15.434 163.525 -5.55112e-17
100 1 2.31256 146.154 -5.55112e-17
101 1 74.2665 63.0585 -5.55112e-17
102 1 130.785 10.4847 -5.55112e-17
103 1 169.871 191.842 -5.55112e-17
104 1 150.646 116.361 -5.55112e-17
105 1 208.112 99.8232 -5.55112e-17
106 1 176.939 104.957 -5.55112e-17
107 2 71.7396 177.117 -5.55112e-17
108 1 35.1144 115.483 -5.55112e-17
109 1 101.131 92.3104 -5.55112e-17
110 1 74.7054 79.5452 -5.55112e-17
111 1 77.4591 175.151 -5.55112e-17
112 1 171.259 84.983 -5.55112e-17
113 1 70.1013 194.42 -5.55112e-17
114 1 172.756 185.265 -5.55112e-17
115 1 81.5529 207.247 -5.55112e-17
116 2 125.762 201.984 -5.55112e-17
117 1 51.2075 182.979 -5.55112e-17
118 1 26.2147 15.1019 -5.55112e-17
119 2 26.7087 89.4642 -5.55112e-17
120 1 51.1946 45.2801 -5.55112e-17
121 1 147.349 14.1032 -5.55112e-17
122 1 22.3186 96.9295 -5.55112e-17
123 1 167.954 141.5 -5.55112e-17
124 1 30.32 197.022 -5.55112e-17
125 1 39.8352 1.30301 -5.55112e-17
126 1 52.6996 208.651 -5.55112e-17
127 1 114.164 23.9125 -5.55112e-17
128 1 135.811 157.451 -5.55112e-17
129 1 84.8837 195.599 -5.55112e-17
130 1 95.224 28.0195 -5.55112e-17
131 1 42.2892 15.8763 -5.55112e-17
132 2 196.019 49.2209 -5.55112e-17
133 1 184.644 214.188 -5.55112e-17
134 1 64.3537 157.418 -5.55112e-17
135 1 208.594 1.0399 -5.55112e-17
136 1 10.6011 213.354 -5.55112e-17
137 1 218.424 160.451 -5.55112e-17
138 1 167.471 204.166 -5.55112e-17
139 1 72.1356 86.7275 -5.55112e-17
140 2 150.145 169.706 -5.55112e-17
141 1 116.402 200.711 -5.55112e-17
142 2 166.409 15.7539 -5.55112e-17
143 1 105.078 102.29 -5.55112e-17
144 2 70.9671 173.772 -5.55112e-17
145 1 207.295 213.956 -5.55112e-17
146 1 201.279 81.0501 -5.55112e-17
147 1 212.804 131.205 -5.55112e-17
148 1 122.679 47.6291 -5.55112e-17
149 1 24.205 162.091 -5.55112e-17
150 1 100.501 178.245 -5.55112e-17
151 1 128.569 1.92815 -5.55112e-17
152 1 215.201 18.2972 -5.55112e-17
153 2 12.9769 8.14137 -5.55112e-17
154 1 143.532 7.31637 -5.55112e-17
155 1 174.365 105.82 -5.55112e-17
156 2 150.352 201.448 -5.55112e-17
157 1 54.6689 64.7113 -5.55112e-17
158 1 168.429 122.265 -5.55112e-17
159 1 157.773 6.00958 -5.55112e-17
160 1 114.196 21.3376 -5.55112e-17
161 1 196.151 142.189 -5.55112e-17
162 1 23.9181 189.607 -5.55112e-17
163 1 218.237 15.6962 -5.55112e-17
164 1 88.2809 206.687 -5.55112e-17
165 1 9.94937 33.7569 -5.55112e-17
166 2 146.075 2.30158 -5.55112e-17
167 1 157.372 118.487 -5.55112e-17
168 1 209.152 97.6726 -5.55112e-17
169 1 195.113 5.41005 -5.55112e-17
170 1 99.243 136.551 -5.55112e-17
171 1 196.778 61.9034 -5.55112e-17
172 1 170.208 140.388 -5.55112e-17
173 1 95.0756 1.80544 -5.55112e-17
174 1 176.978 187.849 -5.55112e-17
175 2 118.021 15.1195 -5.55112e-17
176 1 112.548 202.877 -5.55112e-17
177 2 170.898 42.0044 -5.55112e-17
178 1 45.2287 196.286 -5.55112e-17
179 1 112.237 156.663 -5.55112e-17
180 1 139.513 46.1506 -5.55112e-17
181 1 191.606 178.499 -5.55112e-17
182 2 114.004 80.1523 -5.55112e-17
183 1 77.2169 78.8963 -5.55112e-17
184 1 192.24 133.763 -5.55112e-17
185 2 188.814 217.507 -5.55112e-17
186 2 136.957 130.184 -5.55112e-17
187 1 16.1519 154.678 -5.55112e-17
188 1 175.535 18.6367 -5.55112e-17
189 1 170.288 89.3183 -5.55112e-17
190 2 40.9662 217.627 -5.55112e-17
191 1 28.2644 190.017 -5.55112e-17
192 2 147.566 32.5823 -5.55112e-17
193 2 46.756 47.0496 -5.55112e-17
194 1 110.731 146.356 -5.55112e-17
195 1 33.5057 89.3637 -5.55112e-17
196 1 174.823 192.415 -5.55112e-17
197 1 12.36 132.283 -5.55112e-17
198 2 167.022 107.752 -5.55112e-17
199 1 20.4964 7.64933 -5.55112e-17
200 1 83.2188 209.017 -5.55112e-17
201 2 113.359 153.537 -5.55112e-17
202 1 11.2974 76.7819 -5.55112e-17
203 1 144.681 102.832 -5.55112e-17
204 1 201.767 110.189 -5.55112e-17
205 2 154.133 50.6544 -5.55112e-17
206 1 28.639 164.281 -5.55112e-17
207 1 35.7049 102.257 -5.55112e-17
208 1 36.8077 85.0345 -5.55112e-17
209 1 114.728 93.3153 -5.55112e-17
210 1 156.402 75.0635 -5.55112e-17
211 2 90.7435 189.234 -5.55112e-17
212 1 29.6408 54.7767 -5.55112e-17
213 1 79.9821 175.112 -5.55112e-17
214 1 159.751 203.18 -5.55112e-17
215 1 132.164 48.4541 -5.55112e-17
216 1 174.344 129.179 -5.55112e-17
217 1 133.717 163.21 -5.55112e-17
218 2 38.0466 87.5918 -5.55112e-17
219 1 154.026 193.111 -5.55112e-17
220 2 65.9519 92.8682 -5.55112e-17
221 1 32.9471 189.359 -5.55112e-17
222 1 116.544 20.1058 -5.55112e-17
223 1 3.24151 134.315 -5.55112e-17
224 2 30.8922 194.106 -5.55112e-17
225 1 74.0814 85.0914 -5.55112e-17
226 1 162.571 136.441 -5.55112e-17
227 2 206.117 10.9374 -5.55112e-17
228 1 12.7631 13.9806 -5.55112e-17
229 1 40.235 35.67 -5.55112e-17
230 1 68.4764 104.206 -5.55112e-17
231 1 96.7855 102.71 -5.55112e-17
232 1 92.3678 117.099 -5.55112e-17
233 1 22.6261 198.811 -5.55112e-17
234 1 10.4606 6.86533 -5.55112e-17
235 1 35.5667 196.667 -5.55112e-17
236 1 37.2221 211.997 -5.55112e-17
237 1 218.571 8.26336 -5.55112e-17
238 1 30.4618 75.4525 -5.55112e-17
239 2 21.8141 131.003 -5.55112e-17
240 1 70.8144 108.462 -5.55112e-17
241 2 120.175 91.8766 -5.55112e-17
242 2 126.774 160.164 -5.55112e-17
243 2 115.256 156.141 -5.55112e-17
244 1 34.5169 194.337 -5.55112e-17
245 1 155.483 137.627 -5.55112e-17
246 1 213.421 62.1411 -5.55112e-17
247 1 22.9936 45.4569 -5.55112e-17
248 1 201.106 12.7394 -5.55112e-17
249 1 186.834 39.3037 -5.55112e-17
250 2 138.574 89.4126 -5.55112e-17
251 1 142.114 9.71976 -5.55112e-17
252 1 89.5843 124.729 -5.55112e-17
253 1 101.974 173.683 -5.55112e-17
254 2 19.8762 174.659 -5.55112e-17
255 1 2.05368 118.866 -5.55112e-17
256 1 147.433 27.0218 -5.55112e-17
257 1 201.439 22.5719 -5.55112e-17
258 2 153.779 169.6 -5.55112e-17
259 1 151.33 1.20199 -5.55112e-17
260 1 43.9801 156.398 -5.55112e-17
261 1 156.257 93.2221 -5.55112e-17
262 1 217.532 18.1972 -5.55112e-17
263 1 215.756 199.711 -5.55112e-17
264 1 86.4885 149.336 -5.55112e-17
265 1 166.12 187.389 -5.55112e-17
266 1 112.707 63.1499 -5.55112e-17
267 1 65.669 191.597 -5.55112e-17
268 1 164.417 97.7974 -5.55112e-17
269 1 34.628 170.05 -5.55112e-17
270 1 149.374 74.7325 -5.55112e-17
271 1 185.782 99.6429 -5.55112e-17
272 1 54.362 144.312 -5.55112e-17
273 1 162.777 17.0221 -5.55112e-17
274 2 97.5568 139.379 -5.55112e-17
275 1 177.103 56.6032 -5.55112e-17
276 2 31.7662 65.372 -5.55112e-17
277 2 101.902 51.1556 -5.55112e-17
278 1 203.135 82.5077 -5.55112e-17
279 2 146.582 136.247 -5.55112e-17
280 1 88.305 2.59404 -5.55112e-17
281 1 132.682 131.036 -5.55112e-17
282 1 85.7314 162.178 -5.55112e-17
283 1 94.4445 138.172 -5.55112e-17
284 1 41.219 66.0243 -5.55112e-17
285 1 136.141 185.034 -5.55112e-17
286 2 104.447 128.99 -5.55112e-17
287 1 139.39 111.268 -5.55112e-17
288 1 102.939 196.946 -5.55112e-17
289 1 155.641 203.941 -5.55112e-17
290 1 23.0503 123.48 -5.55112e-17
291 1 215.363 60.515 -5.55112e-17
292 2 151.701 183.621 -5.55112e-17
293 2 145.611 202.397 -5.55112e-17
294 1 159.498 51.7259 -5.55112e-17
295 1 212.153 173.162 -5.55112e-17
296 1 195.552 21.3736 -5.55112e-17
297 1 92.8779 194.103 -5.55112e-17
298 1 132.639 41.3413 -5.55112e-17
299 1 65.892 135.421 -5.55112e-17
300 2 101.47 163.402 -5.55112e-17
301 1 170.622 33.288 -5.55112e-17
302 1 56.7952 32.1329 -5.55112e-17
303 2 148.56 94.1758 -5.55112e-17
304 2 92.9507 50.0486 -5.55112e-17
305 1 178.18 217.553 -5.55112e-17
306 1 115.226 194.153 -5.55112e-17
307 1 202.054 5.20926 -5.55112e-17
308 1 58.4885 150.298 -5.55112e-17
309 2 56.6805 166.852 -5.55112e-17
310 1 127.911 166.431 -5.55112e-17
311 1 107.872 55.5965 -5.55112e-17
312 1 15.0586 148.155 -5.55112e-17
313 2 161.968 152.927 -5.55112e-17
314 1 103.13 77.1527 -5.55112e-17
315 1 113.468 170.525 -5.55112e-17
316 1 79.0769 64.0778 -5.55112e-17
317 1 5.91442 195.695 -5.55112e-17
318 1 73.2722 152.656 -5.55112e-17
319 1 43.9267 37.8547 -5.55112e-17
320 1 78.2567 109.309 -5.55112e-17
321 1 136.409 141.152 -5.55112e-17
322 1 84.0255 153.258 -5.55112e-17
323 1 176.278 0.262502 -5.55112e-17
324 1 44.8597 101.031 -5.55112e-17
325 1 24.5766 186.965 -5.55112e-17
326 1 137.993 192.157 -5.55112e-17
327 2 196.017 116.645 -5.55112e-17
328 1 109.058 120.061 -5.55112e-17
329 2 23.4068 144.11 -5.55112e-17
330 1 98.8302 4.35544 -5.55112e-17
331 1 51.7784 99.3195 -5.55112e-17
332 2 60.3186 65.6864 -5.55112e-17
333 1 160.182 96.3425 -5.55112e-17
334 1 201.561 59.1815 -5.55112e-17
335 1 67.7861 195.017 -5.55112e-17
336 1 20.5891 184.399 -5.55112e-17
337 1 70.4435 113.877 -5.55112e-17
338 1 191.091 61.0635 -5.55112e-17
339 1 133.345 32.192 -5.55112e-17
340 1 12.1724 34.5753 -5.55112e-17
341 1 115.209 58.3536 -5.55112e-17
342 1 80.2999 85.9575 -5.55112e-17
343 1 211.9 102.213 -5.55112e-17
344 1 111.478 130.578 -5.55112e-17
345 1 70.7122 180.052 -5.55112e-17
346 1 16.194 150.362 -5.55112e-17
347 1 68.0543 133.844 -5.55112e-17
348 1 131.987 201.247 -5.55112e-17
349 1 134.57 46.9674 -5.55112e-17
350 2 78.6805 3.83534 -5.55112e-17
351 1 98.591 146.783 -5.55112e-17
352 1 205.124 174.986 -5.55112e-17
353 1 95.9143 169.217 -5.55112e-17
354 1 24.0488 215.639 -5.55112e-17
355 1 141.779 47.2094 -5.55112e-17
356 1 72.2377 167.481 -5.55112e-17
357 1 73.2254 25.3605 -5.55112e-17
358 1 91.2028 186.215 -5.55112e-17
359 1 191.01 131.026 -5.55112e-17
360 1 110.279 203.906 -5.55112e-17
361 1 143.669 193.915 -5.55112e-17
362 1 188.86 141.229 -5.55112e-17
363 1 148.499 216.515 -5.55112e-17
364 2 90.0961 64.8278 -5.55112e-17
365 1 209.753 204.254 -5.55112e-17
366 1 193.103 9.69525 -5.55112e-17
367 1 122.128 123.177 -5.55112e-17
368 1 187.163 74.1319 -5.55112e-17
369 2 183.146 122.565 -5.55112e-17
370 1 49.4256 189.829 -5.55112e-17
371 1 45.6708 152.142 -5.55112e-17
372 2 80.7053 66.2563 -5.55112e-17
373 2 49.1532 6.35938 -5.55112e-17
374 1 115.67 104.337 -5.55112e-17
375 1 46.7217 89.481 -5.55112e-17
376 1 155.674 186.398 -5.55112e-17
377 1 114.325 33.2028 -5.55112e-17
378 1 149.95 131.613 -5.55112e-17
379 1 209.955 104.436 -5.55112e-17
380 1 21.9209 106.899 -5.55112e-17
381 1 199.954 94.8393 -5.55112e-17
382 1 210.58 217.058 -5.55112e-17
383 1 182.068 142.4 -5.55112e-17
384 1 40.9071 41.6773 -5.55112e-17
385 1 71.0707 69.9275 -5.55112e-17
386 2 144.342 209.433 -5.55112e-17
387 1 141.115 53.8095 -5.55112e-17
388 1 27.3682 85.5542 -5.55112e-17
389 1 58.2823 10.2461 -5.55112e-17
390 2 55.2327 138.586 -5.55112e-17
391 2 135.969 154.06 -5.55112e-17
392 1 111.306 170.115 -5.55112e-17
393 1 51.1233 8.48247 -5.55112e-17
394 1 12.8941 36.9971 -5.55112e-17
395 1 173.384 80.9141 -5.55112e-17
396 1 78.156 142.199 -5.55112e-17
397 1 92.3083 129.019 -5.55112e-17
398 1 194.331 65.6163 -5.55112e-17
399 1 192.571 96.1182 -5.55112e-17
400 1 84.1333 170.269 -5.55112e-17
401 1 127.046 179.362 -5.55112e-17
402 2 73.6378 162.476 -5.55112e-17
403 1 150.055 154.554 -5.55112e-17
404 1 100.173 2.35549 -5.55112e-17
405 1 195.665 52.544 -5.55112e-17
406 1 9.78127 92.3863 -5.55112e-17
407 2 164.652 158.762 -5.55112e-17
408 1 49.912 153.54 -5.55112e-17
409 1 106.665 174.399 -5.55112e-17
410 1 10.7786 38.6764 -5.55112e-17
411 1 210.917 178.944 -5.55112e-17
412 1 52.8651 159.692 -5.55112e-17
413 1 17.0454 30.6341 -5.55112e-17
414 1 39.5607 210.252 -5.55112e-17
415 1 116.389 95.3611 -5.55112e-17
416 1 194.739 33.6061 -5.55112e-17
417 1 215.812 191.038 -5.55112e-17
418 2 208.969 28.7246 -5.55112e-17
419 1 17.8686 11.8009 -5.55112e-17
420 2 99.2879 130.394 -5.55112e-17
421 1 191.721 37.1662 -5.55112e-17
422 1 194.664 71.6561 -5.55112e-17
423 2 125.649 191.506 -5.55112e-17
424 1 103.681 60.5113 -5.55112e-17
425 1 215.658 39.5948 -5.55112e-17
426 1 97.5918 158.928 -5.55112e-17
427 1 138.239 148.102 -5.55112e-17
428 1 105.19 56.0101 -5.55112e-17
429 1 108.309 154.976 -5.55112e-17
430 1 156.399 23.7061 -5.55112e-17
431 1 62.4371 208.811 -5.55112e-17
432 1 59.2756 177.414 -5.55112e-17
433 1 72.5946 7.92924 -5.55112e-17
434 1 112.741 76.6056 -5.55112e-17
435 1 195.753 149.582 -5.55112e-17
436 1 46.1271 214.459 -5.55112e-17
437 1 78.6579 32.7119 -5.55112e-17
438 2 63.8017 106.789 -5.55112e-17
439 1 32.8602 47.2754 -5.55112e-17
440 1 164.909 34.2222 -5.55112e-17
441 1 35.4389 185.697 -5.55112e-17
442 1 199.209 126.416 -5.55112e-17
443 1 112.786 82.6773 -5.55112e-17
444 1 21.1633 207.711 -5.55112e-17
445 1 38.0955 107.569 -5.55112e-17
446 1 16.2539 146.283 -5.55112e-17
447 1 120.009 173.093 -5.55112e-17
448 1 54.5834 107.01 -5.55112e-17
449 1 201.788 17.0671 -5.55112e-17
450 1 83.825 70.3414 -5.55112e-17
451 1 206.48 3.47568 -5.55112e-17
452 1 3.41743 171.379 -5.55112e-17
453 1 38.0543 94.3279 -5.55112e-17
454 1 215.397 77.5269 -5.55112e-17
455 1 31.0723 31.204 -5.55112e-17
456 1 150.679 165.262 -5.55112e-17
457 1 154.844 53.8214 -5.55112e-17
458 1 194.762 63.3767 -5.55112e-17
459 1 2.85579 131.405 -5.55112e-17
460 1 106.959 32.0476 -5.55112e-17
461 1 210.388 34.2942 -5.55112e-17
462 1 202.825 162.449 -5.55112e-17
463 1 57.4426 57.9463 -5.55112e-17
464 1 40.1856 59.5315 -5.55112e-17
465 1 196.65 69.874 -5.55112e-17
466 1 3.89816 87.8219 -5.55112e-17
467 1 17.0446 205.263 -5.55112e-17
468 1 51.3935 165.811 -5.55112e-17
469 1 213.845 13.2051 -5.55112e-17
470 1 171.452 161.05 -5.55112e-17
471 1 89.6332 7.76164 -5.55112e-17
472 1 50.474 147.692 -5.55112e-17
473 1 150.268 186.067 -5.55112e-17
474 1 54.8637 79.091 -5.55112e-17
475 1 186.162 62.9779 -5.55112e-17
476 2 105.001 113.034 -5.55112e-17
477 1 204.683 74.7402 -5.55112e-17
478 1 140.101 61.094 -5.55112e-17
479 1 203.045 216.103 -5.55112e-17
480 1 37.4431 1.89201 -5.55112e-17
481 1 124.205 144.786 -5.55112e-17
482 1 117.556 29.8786 -5.55112e-17
483 1 60.9222 130.485 -5.55112e-17
484 2 40.8133 152.537 -5.55112e-17
485 1 45.5617 86.8865 -5.55112e-17
486 1 165.713 60.234 -5.55112e-17
487 1 208.128 61.05 -5.55112e-17
488 1 217.371 131.483 -5.55112e-17
489 1 203.381 180.554 -5.55112e-17
490 1 41.5629 117.986 -5.55112e-17
491 1 16.5216 47.1607 -5.55112e-17
492 1 3.07195 33.8861 -5.55112e-17
493 1 197.713 104.321 -5.55112e-17
494 1 135.698 127.198 -5.55112e-17
495 1 190.422 215.202 -5.55112e-17
496 2 65.8692 148.439 -5.55112e-17
497 1 122.446 179.568 -5.55112e-17
498 1 152.835 195.28 -5.55112e-17
499 2 188.774 195.007 -5.55112e-17
500 1 124.525 195.193 -5.55112e-17
501 2 150.123 15.8083 -5.55112e-17
502 2 176.911 161.935 -5.55112e-17
503 1 111.54 22.3579 -5.55112e-17
504 1 147.716 153.202 -5.55112e-17
505 1 22.4667 125.975 -5.55112e-17
506 1 53.3154 55.0316 -5.55112e-17
507 1 127.484 117.505 -5.55112e-17
508 1 187.862 6.69887 -5.55112e-17
509 2 186.033 204.724 -5.55112e-17
510 2 171.976 8.54441 -5.55112e-17
511 1 36.2374 89.8828 -5.55112e-17
512 2 34.7285 39.7967 -5.55112e-17
513 1 152.241 153.257 -5.55112e-17
514 1 135.524 110.357 -5.55112e-17
515 1 140.103 99.4061 -5.55112e-17
516 1 217.976 46.8325 -5.55112e-17
517 1 28.4979 192.449 -5.55112e-17
518 2 139.16 184.413 -5.55112e-17
519 1 107.088 135.873 -5.55112e-17
520 2 58.7091 157.212 -5.55112e-17
521 1 23.5401 159.399 -5.55112e-17
522 1 147.619 120.274 -5.55112e-17
523 1 180.56 111.414 -5.55112e-17
524 1 79.2624 6.61906 -5.55112e-17
525 1 112.363 182.534 -5.55112e-17
526 1 1.51064 106.437 -5.55112e-17
527 1 120.728 201.228 -5.55112e-17
528 1 210.949 138.909 -5.55112e-17
529 1 33.2861 215.93 -5.55112e-17
530 1 75.7508 96.3411 -5.55112e-17
531 1 101.348 195.036 -5.55112e-17
532 1 164.967 105.232 -5.55112e-17
533 1 79.4638 139.764 -5.55112e-17
534 1 183.882 115.081 -5.55112e-17
535 1 107.983 83.1178 -5.55112e-17
536 1 51.7408 93.9227 -5.55112e-17
537 1 4.97277 12.5591 -5.55112e-17
538 1 207.521 170.967 -5.55112e-17
539 1 14.5448 214.232 -5.55112e-17
540 1 190.535 168.601 -5.55112e-17
541 1 65.7898 185.149 -5.55112e-17
542 1 94.6011 146.856 -5.55112e-17
543 1 190.3 67.9352 -5.55112e-17
544 1 68.7148 149.877 -5.55112e-17
545 1 200.967 209.248 -5.55112e-17
546 1 43.5278 46.2041 -5.55112e-17
547 1 170.427 197.067 -5.55112e-17
548 1 161.227 83.6201 -5.55112e-17
549 1 2.98727 104.392 -5.55112e-17
550 2 51.3243 30.3497 -5.55112e-17
551 2 6.30204 200.905 -5.55112e-17
552 2 79.8791 192.481 -5.55112e-17
553 1 52.1095 96.7509 -5.55112e-17
554 1 14.3151 179.528 -5.55112e-17
555 2 6.99937 92.2076 -5.55112e-17
556 1 176.649 143.223 -5.55112e-17
557 1 136.32 9.71471 -5.55112e-17
558 1 7.77646 64.5746 -5.55112e-17
559 1 200.645 47.2748 -5.55112e-17
560 1 68.5291 156.108 -5.55112e-17
561 1 10.8984 136.509 -5.55112e-17
562 1 82.7758 127.95 -5.55112e-17
563 2 9.927 115.771 -5.55112e-17
564 1 188.807 163.301 -5.55112e-17
565 1 145.751 124.9 -5.55112e-17
566 1 97.5717 52.8529 -5.55112e-17
567 1 189.082 189.878 -5.55112e-17
568 1 191.16 163.996 -5.55112e-17
569 1 88.381 211.243 -5.55112e-17
570 1 150.436 32.0459 -5.55112e-17
571 1 158.679 166.555 -5.55112e-17
572 1 195.011 186.252 -5.55112e-17
573 1 107.601 213.272 -5.55112e-17
574 1 137.692 109.529 -5.55112e-17
575 1 7.71286 140.518 -5.55112e-17
576 1 59.458 167.235 -5.55112e-17
577 1 115.041 69.4208 -5.55112e-17
578 1 212.184 22.3744 -5.55112e-17
579 1 176.012 147.988 -5.55112e-17
580 1 21.6511 89.9734 -5.55112e-17
581 1 104.701 24.3931 -5.55112e-17
582 1 66.5773 47.3294 -5.55112e-17
583 1 133.437 6.28015 -5.55112e-17
584 2 17.8434 39.6978 -5.55112e-17
585 1 211.998 125.526 -5.55112e-17
586 1 107.349 10.2903 -5.55112e-17
587 1 24.7408 125.429 -5.55112e-17
588 1 82.3979 199.617 -5.55112e-17
589 1 84.5174 206.813 -5.55112e-17
590 1 215.279 25.2143 -5.55112e-17
591 1 43.7322 136.455 -5.55112e-17
592 1 119.502 99.9466 -5.55112e-17
593 1 182.031 92.4745 -5.55112e-17
594 1 6.59277 153.534 -5.55112e-17
595 1 215.267 103.695 -5.55112e-17
596 1 126.726 216.425 -5.55112e-17
597 2 19.2372 51.7435 -5.55112e-17
598 1 179.679 157.162 -5.55112e-17
599 1 79.8568 11.8655 -5.55112e-17
600 1 36.3052 97.4955 -5.55112e-17
601 1 142.867 21.5981 -5.55112e-17
602 1 30.6414 23.9613 -5.55112e-17
603 1 213.391 211.741 -5.55112e-17
604 1 61.2878 86.6413 -5.55112e-17
605 2 10.2905 182.211 -5.55112e-17
606 1 214.019 79.6195 -5.55112e-17
607 2 63.6828 145.498 -5.55112e-17
608 1 172.741 195.946 -5.55112e-17
609 1 187.259 33.1333 -5.55112e-17
610 1 217.269 214.356 -5.55112e-17
611 1 171.27 156.387 -5.55112e-17
612 1 168.037 2.14279 -5.55112e-17
613 1 196.484 76.0342 -5.55112e-17
614 2 136.64 97.0595 -5.55112e-17
615 1 112.787 2.45929 -5.55112e-17
616 1 22.6141 22.6237 -5.55112e-17
617 1 163.597 58.5139 -5.55112e-17
618 1 205.829 187.747 -5.55112e-17
619 1 131.371 187.318 -5.55112e-17
620 1 116.044 170.904 -5.55112e-17
621 1 20.8889 101.117 -5.55112e-17
622 1 43.6555 103.434 -5.55112e-17
623 1 166.143 123.238 -5.55112e-17
624 1 143.453 64.023 -5.55112e-17
625 1 155.154 19.4963 -5.55112e-17
626 1 182.791 183.945 -5.55112e-17
627 1 46.1224 184.383 -5.55112e-17
628 1 25.9666 79.6967 -5.55112e-17
629 1 179.992 183.659 -5.55112e-17
630 2 14.2093 68.2159 -5.55112e-17
631 1 203.916 144.287 -5.55112e-17
632 1 160.468 205.517 -5.55112e-17
633 1 120.015 178.682 -5.55112e-17
634 1 193.306 164.123 -5.55112e-17
635 1 129.315 55.3344 -5.55112e-17
636 1 142.001 210.951 -5.55112e-17
637 1 96.5776 136.774 -5.55112e-17
638 1 123.715 129.585 -5.55112e-17
639 2 148.52 88.0098 -5.55112e-17
640 1 211.689 213.447 -5.55112e-17
641 1 163.444 111.464 -5.55112e-17
642 1 105.181 65.4884 -5.55112e-17
643 2 205.419 160.907 -5.55112e-17
644 1 64.2352 53.5932 -5.55112e-17
645 1 114.092 134.419 -5.55112e-17
646 2 19.1522 91.6259 -5.55112e-17
647 1 140.265 168.955 -5.55112e-17
648 1 25.7642 196.039 -5.55112e-17
649 2 19.4029 135.931 -5.55112e-17
650 1 6.50721 183.128 -5.55112e-17
651 1 88.2079 176.505 -5.55112e-17
652 1 192.711 4.94143 -5.55112e-17
653 1 35.2539 181.981 -5.55112e-17
654 1 158.572 46.4478 -5.55112e-17
655 2 140.783 193.169 -5.55112e-17
656 1 155.44 80.1494 -5.55112e-17
657 2 164.153 131.867 -5.55112e-17
658 1 176.391 31.9092 -5.55112e-17
659 2 100.58 158.122 -5.55112e-17
660 1 130.094 80.6963 -5.55112e-17
661 1 23.5908 128.323 -5.55112e-17
662 1 135.638 169.672 -5.55112e-17
663 1 35.1653 1.05164 -5.55112e-17
664 1 147.525 150.775 -5.55112e-17
665 1 130.382 199.47 -5.55112e-17
666 2 84.417 16.2274 -5.55112e-17
667 1 205.703 142.683 -5.55112e-17
668 2 218.646 175.537 -5.55112e-17
669 1 140.736 105.903 -5.55112e-17
670 1 84.7444 193.276 -5.55112e-17
671 2 38.7906 30.0658 -5.55112e-17
672 1 56.7081 194.765 -5.55112e-17
673 1 118.801 160.252 -5.55112e-17
674 1 74.5958 166.012 -5.55112e-17
675 1 17.5724 172.917 -5.55112e-17
676 1 88.9577 72.1609 -5.55112e-17
677 1 39.6093 142.758 -5.55112e-17
678 1 37.4448 69.6291 -5.55112e-17
679 2 91.8127 183.437 -5.55112e-17
680 1 177.325 164.516 -5.55112e-17
681 2 20.5722 109.7 -5.55112e-17
682 1 46.7489 163.797 -5.55112e-17
683 1 135.713 62.0203 -5.55112e-17
684 1 11.0892 162.488 -5.55112e-17
685 1 25.2836 10.1165 -5.55112e-17
686 1 184.04 211.898 -5.55112e-17
687 1 2.36818 22.2231 -5.55112e-17
688 1 36.0412 148.805 -5.55112e-17
689 2 152.94 5.62523 -5.55112e-17
690 1 7.01895 29.7444 -5.55112e-17
691 1 2.12254 40.9742 -5.55112e-17
692 1 160.103 128.767 -5.55112e-17
693 1 66.2191 129.704 -5.55112e-17
694 1 26.2604 160.193 -5.55112e-17
695 1 122.363 190.743 -5.55112e-17
696 1 153.155 115.553 -5.55112e-17
697 1 167.504 169.035 -5.55112e-17
698 1 159.823 99.1211 -5.55112e-17
699 1 127.599 31.9703 -5.55112e-17
700 1 206.539 190.253 -5.55112e-17
701 1 196.314 38.676 -5.55112e-17
702 1 165.211 88.4921 -5.55112e-17
703 2 171.807 212.978 -5.55112e-17
704 1 193.902 57.1856 -5.55112e-17
705 2 91.8592 38.9843 -5.55112e-17
706 1 64.3325 178.38 -5.55112e-17
707 1 190.939 175.755 -5.55112e-17
708 1 104.894 83.6992 -5.55112e-17
709 1 82.2953 125.039 -5.55112e-17
710 1 95.733 111.081 -5.55112e-17
711 1 209.039 84.8889 -5.55112e-17
712 1 81.8013 98.2576 -5.55112e-17
713 1 27.351 211.656 -5.55112e-17
714 1 71.6452 19.459 -5.55112e-17
715 1 202.293 56.6328 -5.55112e-17
716 1 197.187 190.551 -5.55112e-17
717 1 52.2105 152.99 -5.55112e-17
718 1 140.789 70.6473 -5.55112e-17
719 2 45.8775 211.239 -5.55112e-17
720 1 201.213 107.766 -5.55112e-17
721 1 46.9312 136.244 -5.55112e-17
722 1 173.764 156.496 -5.55112e-17
723 2 168.792 94.9539 -5.55112e-17
724 1 33.011 79.2371 -5.55112e-17
725 1 91.9579 124.324 -5.55112e-17
726 1 113.734 131.651 -5.55112e-17
727 1 119.479 4.50348 -5.55112e-17
728 2 99.1916 199.976 -5.55112e-17
729 1 39.7685 129.224 -5.55112e-17
730 1 153.247 202.811 -5.55112e-17
731 1 114.169 55.8866 -5.55112e-17
732 1 49.7758 15.4334 -5.55112e-17
733 1 53.9694 189.501 -5.55112e-17
734 1 81.6303 157.626 -5.55112e-17
735 1 23.5499 152.117 -5.55112e-17
736 2 26.3787 184.966 -5.55112e-17
737 1 167.491 164.111 -5.55112e-17
738 1 138.112 53.0978 -5.55112e-17
739 1 150.871 3.67955 -5.55112e-17
740 1 194.273 108.45 -5.55112e-17
741 2 63.9665 170.89 -5.55112e-17
742 1 134.494 179.048 -5.55112e-17
743 1 140.752 36.7865 -5.55112e-17
744 2 13.6217 209.344 -5.55112e-17
745 1 107.144 47.3041 -5.55112e-17
746 1 26.3331 67.216 -5.55112e-17
747 2 121.898 187.457 -5.55112e-17
748 1 210.828 83.3085 -5.55112e-17
749 1 79.8852 200.259 -5.55112e-17
750 1 216.786 23.0831 -5.55112e-17
751 1 2.40914 167.932 -5.55112e-17
752 1 92.5039 46.9466 -5.55112e-17
753 1 208.31 43.5997 -5.55112e-17
754 1 119.969 206.956 -5.55112e-17
755 1 34.596 22.537 -5.55112e-17
756 2 212.461 128.418 -5.55112e-17
757 1 59.0636 48.454 -5.55112e-17
758 1 139.285 43.7115 -5.55112e-17
759 1 193.693 87.529 -5.55112e-17
760 1 145.196 12.5696 -5.55112e-17
761 1 153.621 215.256 -5.55112e-17
762 1 127.636 16.3994 -5.55112e-17
763 1 28.6661 216.99 -5.55112e-17
764 2 177.47 190.778 -5.55112e-17
765 1 203.376 41.5228 -5.55112e-17
766 1 58.7009 114.836 -5.55112e-17
767 1 152.946 205.329 -5.55112e-17
768 1 192.988 35.2232 -5.55112e-17
769 1 84.2869 93.0777 -5.55112e-17
770 2 200.69 34.9498 -5.55112e-17
771 1 170.259 194.393 -5.55112e-17
772 1 129.744 130.449 -5.55112e-17
773 1 77.8438 111.636 -5.55112e-17
774 1 40.5643 193.986 -5.55112e-17
775 1 93.5758 106.616 -5.55112e-17
776 1 181.663 134.575 -5.55112e-17
777 1 170.413 3.07663 -5.55112e-17
778 1 71.6728 62.0251 -5.55112e-17
779 1 189.738 156.69 -5.55112e-17
780 1 122.288 53.4517 -5.55112e-17
781 1 37.3129 82.5697 -5.55112e-17
782 1 161.776 215.834 -5.55112e-17
783 1 95.0045 47.6571 -5.55112e-17
784 2 14.0093 205.55 -5.55112e-17
785 1 195.382 156.756 -5.55112e-17
786 1 143.428 17.1213 -5.55112e-17
787 1 21.3293 121.663 -5.55112e-17
788 1 83.8131 186.004 -5.55112e-17
789 2 199.806 83.7379 -5.55112e-17
790 1 99.7282 113.689 -5.55112e-17
791 2 41.9842 100.934 -5.55112e-17
792 2 132.659 153.021 -5.55112e-17
793 2 209.709 183.954 -5.55112e-17
794 1 192.74 85.389 -5.55112e-17
795 1 177.378 49.1935 -5.55112e-17
796 1 214.19 195.238 -5.55112e-17
797 1 73.706 125.13 -5.55112e-17
798 2 153.596 112.789 -5.55112e-17
799 2 85.0774 55.7005 -5.55112e-17
800 2 206.411 65.3418 -5.55112e-17
801 1 60.5302 103.593 -5.55112e-17
802 1 209.607 214.936 -5.55112e-17
803 1 169.832 126.792 -5.55112e-17
804 2 194.061 68.8785 -5.55112e-17
805 1 183.769 69.6938 -5.55112e-17
806 1 152.939 200.414 -5.55112e-17
807 2 213.49 55.2008 -5.55112e-17
808 1 125.484 64.9205 -5.55112e-17
809 2 46.9916 79.2854 -5.55112e-17
810 1 52.9332 162.881 -5.55112e-17
811 1 118.523 94.008 -5.55112e-17
812 1 39.1516 213.39 -5.55112e-17
813 2 175.185 138.273 -5.55112e-17
814 1 157.098 111.346 -5.55112e-17
815 1 197.169 31.9324 -5.55112e-17
816 1 216.114 211.598 -5.55112e-17
817 1 102.211 117.632 -5.55112e-17
818 1 141.269 1.0693 -5.55112e-17
819 1 196.68 183.996 -5.55112e-17
820 1 30.2284 181.493 -5.55112e-17
821 1 108.731 196.086 -5.55112e-17
822 2 81.3069 149.322 -5.55112e-17
823 2 11.5575 73.5293 -5.55112e-17
824 1 42.6343 106.223 -5.55112e-17
825 1 166.291 5.76033 -5.55112e-17
826 1 86.1469 22.6537 -5.55112e-17
827 1 192.537 72.7495 -5.55112e-17
828 1 118.028 103.794 -5.55112e-17
829 1 81.9686 93.0524 -5.55112e-17
830 1 78.4934 26.3784 -5.55112e-17
831 1 160.66 115.337 -5.55112e-17
832 1 60.8738 113.926 -5.55112e-17
833 1 18.6719 129.144 -5.55112e-17
834 1 47.316 21.7108 -5.55112e-17
835 1 17.4684 143.958 -5.55112e-17
836 1 2.11453 8.48662 -5.55112e-17
837 1 184.77 67.6139 -5.55112e-17
838 1 26.7324 135 -5.55112e-17
839 2 68.8494 54.7785 -5.55112e-17
840 1 65.0678 29.3026 -5.55112e-17
841 2 158.586 25.542 -5.55112e-17
842 1 105.922 159.991 -5.55112e-17
843 2 215.53 70.2257 -5.55112e-17
844 1 110.238 10.5727 -5.55112e-17
845 1 187.563 187.703 -5.55112e-17
846 1 3.93401 175.606 -5.55112e-17
847 1 122.323 22.1414 -5.55112e-17
848 1 20.5043 148.002 -5.55112e-17
849 1 66.4439 151.156 -5.55112e-17
850 1 131.459 135.713 -5.55112e-17
851 1 37.1383 99.7695 -5.55112e-17
852 1 183.709 199.339 -5.55112e-17
853 1 171.173 70.9314 -5.55112e-17
854 1 185.724 121.93 -5.55112e-17
855 1 84.1225 49.0001 -5.55112e-17
856 1 34.3333 34.2819 -5.55112e-17