ITEM: TIMESTEP
0
ITEM: NUMBER OF ATOMS
7200
ITEM: BOX BOUNDS xy xz yz pp pp pp
0.0000000000000000e+00 2.1900000000000000e+02 0.0000000000000000e+00
0.0000000000000000e+00 2.1900000000000000e+02 0.0000000000000000e+00
-3.6499999999999999e-01 3.6499999999999999e-01 0.0000000000000000e+00
ITEM: ATOMS id type x y z
1 1 140.835 57.0761 -5.55112e-17
2 1 154.653 18.7086 -5.55112e-17
3 1 5.35755 136.443 -5.55112e-17
4 1 60.828 165.108 -5.55112e-17
5 1 196.278 128.087 -5.55112e-17
6 1 160.543 112.993 -5.55112e-17
7 1 218.892 198.583 -5.55112e-17
8 2 125.872 131.891 -5.55112e-17
9 1 148.664 193.304 -5.55112e-17
10 2 103.466 203.36 -5.55112e-17
11 1 179.199 36.6949 -5.55112e-17
12 1 35.8287 95.5116 -5.55112e-17
13 2 144.148 191.127 -5.55112e-17
14 1 115.951 142.072 -5.55112e-17
15 1 179.6 214.602 -5.55112e-17
16 2 150.415 190.852 -5.55112e-17
17 1 159.121 32.9023 -5.55112e-17
18 2 86.7964 191.921 -5.55112e-17
19 1 213.79 123.016 -5.55112e-17
20 1 158.039 159.19 -5.55112e-17
21 1 206.018 205.796 -5.55112e-17
22 2 19.4409 97.5406 -5.55112e-17
23 2 188.037 46.0511 -5.55112e-17
24 1 23.9391 207.5 -5.55112e-17
25 1 54.9837 213.963 -5.55112e-17
26 2 10.2962 199.877 -5.55112e-17
27 1 212.698 174.824 -5.55112e-17
28 2 44.5095 187.94 -5.55112e-17
29 1 198.579 135.281 -5.55112e-17
30 1 102.131 191.225 -5.55112e-17
31 1 50 30.3298 -5.55112e-17
32 1 54.6673 206.653 -5.55112e-17
33 1 118.701 192.092 -5.55112e-17
34 1 2.23148 59.2276 -5.55112e-17
35 1 149.254 202.252 -5.55112e-17
36 1 48.5322 143.017 -5.55112e-17
37 2 200.242 37.7023 -5.55112e-17
38 1 213.535 131.142 -5.55112e-17
39 1 154.223 132.711 -5.55112e-17
40 1 197.125 68.501 -5.55112e-17
41 1 152.708 101.512 -5.55112e-17
42 1 175.922 117.174 -5.55112e-17
43 1 67.5529 59.6638 -5.55112e-17
44 1 133.375 37.5581 -5.55112e-17
45 1 137.22 63.7012 -5.55112e-17
46 1 211.384 50.6377 -5.55112e-17
47 1 112.882 70.5447 -5.55112e-17
48 2 164.473 43.9357 -5.55112e-17
49 1 140.165 204.237 -5.55112e-17
50 1 153.949 167.861 -5.55112e-17
51 1 2.02403 10.162 -5.55112e-17
52 1 40.691 64.0759 -5.55112e-17
53 1 11.7222 179.37 -5.55112e-17
54 1 161.442 108.531 -5.55112e-17
55 1 178.151 172.61 -5.55112e-17
56 1 125.869 174.972 -5.55112e-17
57 2 189.678 67.836 -5.55112e-17
58 1 186.393 164.154 -5.55112e-17
59 1 149.779 64.2597 -5.55112e-17
60 2 45.0255 51.93 -5.55112e-17
61 2 0.624823 69.5688 -5.55112e-17
62 1 215.845 76.7685 -5.55112e-17
63 1 186.875 182.953 -5.55112e-17
64 1 189.182 121.862 -5.55112e-17
65 1 173.621 208.127 -5.55112e-17
66 1 181.638 77.173 -5.55112e-17
67 1 53.0936 12.4676 -5.55112e-17
68 1 68.1301 15.0125 -5.55112e-17
69 1 94.9569 200.357 -5.55112e-17
70 1 43.498 76.1331 -5.55112e-17
71 1 216.144 94.3363 -5.55112e-17
72 1 108.295 164.703 -5.55112e-17
73 1 182.886 181.002 -5.55112e-17
74 1 87.9736 21.2807 -5.55112e-17
75 2 121.681 63.0853 -5.55112e-17
76 1 72.1994 27.8291 -5.55112e-17
77 1 149.161 37.1098 -5.55112e-17
78 1 53.6218 76.628 -5.55112e-17
79 2 188.589 5.94911 -5.55112e-17
80 1 161.634 144.426 -5.55112e-17
81 1 104.854 41.5396 -5.55112e-17
82 1 95.9982 194.428 -5.55112e-17
83 2 108.591 8.54604 -5.55112e-17
84 1 4.39605 20.7941 -5.55112e-17
85 1 69.1457 161.804 -5.55112e-17
86 1 167.143 16.206 -5.55112e-17
87 1 89.4632 137.721 -5.55112e-17
88 1 52.3554 191.714 -5.55112e-17
89 2 195.959 214.553 -5.55112e-17
90 2 38.2274 61.0273 -5.55112e-17
91 1 126.46 139.692 -5.55112e-17
92 2 218.959 150.931 -5.55112e-17
93 1 17.8882 16.0174 -5.55112e-17
94 2 102.286 121.011 -5.55112e-17
95 1 197.235 11.9534 -5.55112e-17
96 1 55.2651 31.2157 -5.55112e-17
97 1 65.8494 188.643 -5.55112e-17
98 1 103.706 97.0214 -5.55112e-17
99 1 211.956 159.858 -5.55112e-17
100 1 47.4944 26.1273 -5.55112e-17
101 1 15.8873 27.0961 -5.55112e-17
102 1 129.454 11.7496 -5.55112e-17
103 1 3.411 205.1 -5.55112e-17
104 1 136.291 91.0035 -5.55112e-17
105 1 95.9157 31.4884 -5.55112e-17
106 1 181.098 120.984 -5.55112e-17
107 2 45.351 215.7 -5.55112e-17
108 1 185.805 173.764 -5.55112e-17
109 1 145.687 75.5831 -5.55112e-17
110 1 120.494 118.013 -5.55112e-17
111 1 6.1037 7.06005 -5.55112e-17
112 1 151.927 96.5472 -5.55112e-17
113 1 124.498 19.9508 -5.55112e-17
114 1 92.1973 183.404 -5.55112e-17
115 1 69.9983 71.8744 -5.55112e-17
116 2 16.3173 108.001 -5.55112e-17
117 1 192.637 132.292 -5.55112e-17
118 1 110.968 18.4126 -5.55112e-17
119 2 128.475 115.255 -5.55112e-17
120 1 205.565 108.526 -5.55112e-17
121 1 208.77 27.093 -5.55112e-17
122 1 63.0695 143.181 -5.55112e-17
123 1 160.969 164.962 -5.55112e-17
124 1 164.006 108.887 -5.55112e-17
125 1 159.978 127.504 -5.55112e-17
126 1 194.475 154.349 -5.55112e-17
127 1 182.061 41.9173 -5.55112e-17
128 1 135.49 111.792 -5.55112e-17
129 1 17.3458 165.458 -5.55112e-17
130 1 97.6382 88.421 -5.55112e-17
131 1 213.166 196.66 -5.55112e-17
132 2 132.996 168.74 -5.55112e-17
133 1 53.9016 152.002 -5.55112e-17
134 1 132.058 178.052 -5.55112e-17
135 1 41.16 174.83 -5.55112e-17
136 1 53.1935 119.535 -5.55112e-17
137 1 91.3623 216.951 -5.55112e-17
138 1 139.862 88.3101 -5.55112e-17
139 1 8.53778 66.7506 -5.55112e-17
140 2 152.918 5.52563 -5.55112e-17
141 1 101.837 160.591 -5.55112e-17
142 2 56.5965 178.489 -5.55112e-17
143 1 49.2945 50.4452 -5.55112e-17
144 2 66.7907 109.386 -5.55112e-17
145 1 177.914 108.425 -5.55112e-17
146 1 109.671 152.448 -5.55112e-17
147 1 156.293 198.995 -5.55112e-17
148 1 79.9442 47.3508 -5.55112e-17
149 1 64.2879 204.445 -5.55112e-17
150 1 174.484 215.335 -5.55112e-17
151 1 97.2143 211.713 -5.55112e-17
152 1 1.16839 74.3666 -5.55112e-17
153 2 90.207 185.087 -5.55112e-17
154 1 12.4357 65.1869 -5.55112e-17
155 1 116.457 206.437 -5.55112e-17
156 2 14.9597 131.941 -5.55112e-17
157 1 201.19 113.114 -5.55112e-17
158 1 121.325 40.2737 -5.55112e-17
159 1 79.7096 135.336 -5.55112e-17
160 1 69.8142 60.735 -5.55112e-17
161 1 111.664 175.187 -5.55112e-17
162 1 212.085 69.7714 -5.55112e-17
163 1 207.535 60.1234 -5.55112e-17
164 1 213.32 52.2268 -5.55112e-17
165 1 33.8407 1.70179 -5.55112e-17
166 2 139.178 66.5495 -5.55112e-17
167 1 92.805 172.202 -5.55112e-17
168 1 218.542 19.6561 -5.55112e-17
169 1 209.461 90.9821 -5.55112e-17
170 1 106.534 45.7487 -5.55112e-17
171 1 0.988316 17.5694 -5.55112e-17
172 1 140.87 36.8474 -5.55112e-17
173 1 93.9973 149.058 -5.55112e-17
174 1 172.526 203.727 -5.55112e-17
175 2 203.354 110.573 -5.55112e-17
176 1 202.981 185.68 -5.55112e-17
177 2 93.6508 29.5003 -5.55112e-17
178 1 120.484 96.1073 -5.55112e-17
179 1 216.261 81.4454 -5.55112e-17
180 1 3.59691 144.223 -5.55112e-17
181 1 26.4442 110.738 -5.55112e-17
182 2 195.691 34.2771 -5.55112e-17
183 1 49.7334 181.873 -5.55112e-17
184 1 26.6444 24.6265 -5.55112e-17
185 2 215.777 6.6252 -5.55112e-17
186 2 147.894 16.6295 -5.55112e-17
187 1 158.171 3.41619 -5.55112e-17
188 1 216.413 178.416 -5.55112e-17
189 1 95.3858 53.1226 -5.55112e-17
190 2 156.705 204.148 -5.55112e-17
191 1 49.4514 93.4501 -5.55112e-17
192 2 125.343 119.021 -5.55112e-17
193 2 4.96369 200.152 -5.55112e-17
194 1 185.399 94.471 -5.55112e-17
195 1 180.688 168.032 -5.55112e-17
196 1 100.894 5.77462 -5.55112e-17
197 1 60.5166 61.2796 -5.55112e-17
198 2 99.8639 80.8553 -5.55112e-17
199 1 104.73 206.345 -5.55112e-17
200 1 100.433 196.249 -5.55112e-17
201 2 44.0712 68.3154 -5.55112e-17
202 1 146.206 132.832 -5.55112e-17
203 1 36.8531 100.657 -5.55112e-17
204 1 127.45 196.097 -5.55112e-17
205 2 193.193 9.22322 -5.55112e-17
206 1 118.401 182.117 -5.55112e-17
207 1 89.6387 161.34 -5.55112e-17
208 1 183.018 152.366 -5.55112e-17
209 1 166.531 74.3218 -5.55112e-17
210 1 189.869 153.469 -5.55112e-17
211 2 199.938 67.0559 -5.55112e-17
212 1 73.4575 76.7857 -5.55112e-17
213 1 194.346 93.486 -5.55112e-17
214 1 200.629 57.0848 -5.55112e-17
215 1 143.016 27.3965 -5.55112e-17
216 1 167.726 26.6738 -5.55112e-17
217 1 85.4277 212.024 -5.55112e-17
218 2 172.409 168.752 -5.55112e-17
219 1 106.149 148.358 -5.55112e-17
220 2 47.2421 127.359 -5.55112e-17
221 1 19.7085 82.8527 -5.55112e-17
222 1 22.1349 83.55 -5.55112e-17
223 1 107.317 184.287 -5.55112e-17
224 2 36.4131 8.72062 -5.55112e-17
225 1 80.782 151.31 -5.55112e-17
226 1 41.4408 148.649 -5.55112e-17
227 2 41.0934 190.461 -5.55112e-17
228 1 133.899 207.971 -5.55112e-17
229 1 62.1519 170.578 -5.55112e-17
230 1 217.912 131.452 -5.55112e-17
231 1 106.803 133.256 -5.55112e-17
232 1 213.333 46.9052 -5.55112e-17
233 1 187.021 190.76 -5.55112e-17
234 1 159.929 62.8452 -5.55112e-17
235 1 153.633 37.7512 -5.55112e-17
236 1 107.192 89.9379 -5.55112e-17
237 1 205.358 33.7177 -5.55112e-17
238 1 47.069 98.501 -5.55112e-17
239 2 61.9886 178.35 -5.55112e-17
240 1 164.59 62.4045 -5.55112e-17
241 2 35.4532 131.704 -5.55112e-17
242 2 11.7104 216.226 -5.55112e-17
243 2 125.058 212.735 -5.55112e-17
244 1 35.325 113.536 -5.55112e-17
245 1 77.9012 181.883 -5.55112e-17
246 1 155.458 128.476 -5.55112e-17
247 1 154.711 102.933 -5.55112e-17
248 1 106.983 67.8555 -5.55112e-17
249 1 215.073 3.56008 -5.55112e-17
250 2 89.68 38.8085 -5.55112e-17
251 1 106.612 216.838 -5.55112e-17
252 1 64.4394 45.058 -5.55112e-17
253 1 124.658 203.754 -5.55112e-17
254 2 147.427 151.609 -5.55112e-17
255 1 40.2862 11.4396 -5.55112e-17
256 1 148.929 25.6517 -5.55112e-17
257 1 11.358 135.774 -5.55112e-17
258 2 79.2762 39.5903 -5.55112e-17
259 1 205.529 9.81314 -5.55112e-17
260 1 0.908896 116.738 -5.55112e-17
261 1 157.488 119.748 -5.55112e-17
262 1 170.768 115.737 -5.55112e-17
263 1 51.4152 28.4827 -5.55112e-17
264 1 48.014 1.32818 -5.55112e-17
265 1 160.064 172.244 -5.55112e-17
266 1 155.88 74.9707 -5.55112e-17
267 1 185.818 161.186 -5.55112e-17
268 1 21.3344 43.4228 -5.55112e-17
269 1 58.5971 92.0966 -5.55112e-17
270 1 6.74356 99.4522 -5.55112e-17
271 1 5.64318 146.054 -5.55112e-17
272 1 201.571 164.34 -5.55112e-17
273 1 48.6296 149.431 -5.55112e-17
274 2 186.466 128.829 -5.55112e-17
275 1 22.2908 95.7356 -5.55112e-17
276 2 203.037 218.118 -5.55112e-17
277 2 147.945 50.0172 -5.55112e-17
278 1 119.123 198.987 -5.55112e-17
279 2 172.286 28.832 -5.55112e-17
280 1 121.854 6.35837 -5.55112e-17
281 1 190.45 167.037 -5.55112e-17
282 1 201.413 34.8748 -5.55112e-17
283 1 9.06379 160.81 -5.55112e-17
284 1 134.47 178.658 -5.55112e-17
285 1 152.165 215.423 -5.55112e-17
286 2 94.9407 174.179 -5.55112e-17
287 1 214.192 103.165 -5.55112e-17
288 1 23.6625 15.1822 -5.55112e-17
289 1 49.8551 204.959 -5.55112e-17
290 1 9.25726 179.522 -5.55112e-17
291 1 132.401 27.9866 -5.55112e-17
292 2 29.7907 169.56 -5.55112e-17
293 2 83.551 96.4828 -5.55112e-17
294 1 195.003 171.572 -5.55112e-17
295 1 135.963 44.1023 -5.55112e-17
296 1 30.9723 23.8014 -5.55112e-17
297 1 184.546 192.267 -5.55112e-17
298 1 2.70166 177.456 -5.55112e-17
299 1 124.363 141.382 -5.55112e-17
300 2 158.216 101.016 -5.55112e-17
301 1 171.331 58.5027 -5.55112e-17
302 1 96.0069 131.333 -5.55112e-17
303 2 126.056 7.00253 -5.55112e-17
304 2 15.2178 64.2184 -5.55112e-17
305 1 124.975 9.68186 -5.55112e-17
306 1 155.937 82.2888 -5.55112e-17
307 1 12.4677 164.124 -5.55112e-17
308 1 166.649 93.5488 -5.55112e-17
309 2 77.426 163.405 -5.55112e-17
310 1 208.666 192.893 -5.55112e-17
311 1 30.0055 102.386 -5.55112e-17
312 1 86.6873 164.764 -5.55112e-17
313 2 141.069 192.319 -5.55112e-17
314 1 184.827 186.618 -5.55112e-17
315 1 186.164 136.34 -5.55112e-17
316 1 120.752 209.354 -5.55112e-17
317 1 139.799 113.639 -5.55112e-17
318 1 133.765 189.247 -5.55112e-17
319 1 104.497 190.495 -5.55112e-17
320 1 209.91 16.531 -5.55112e-17
321 1 48.5334 21.9005 -5.55112e-17
322 1 25.9734 108.183 -5.55112e-17
323 1 100.703 203.79 -5.55112e-17
324 1 94.5706 115.194 -5.55112e-17
325 1 90.4494 155.295 -5.55112e-17
326 1 14.8015 81.4362 -5.55112e-17
327 2 164.363 83.6674 -5.55112e-17
328 1 90.518 42.0777 -5.55112e-17
329 2 12.0425 88.2556 -5.55112e-17
330 1 146.136 55.5861 -5.55112e-17
331 1 123.74 69.0345 -5.55112e-17
332 2 118.033 23.7513 -5.55112e-17
333 1 49.7786 128.573 -5.55112e-17
334 1 160.677 15.2607 -5.55112e-17
335 1 10.8907 154.098 -5.55112e-17
336 1 31.0624 95.2671 -5.55112e-17
337 1 72.8688 185.558 -5.55112e-17
338 1 188.536 65.1635 -5.55112e-17
339 1 115.773 197.192 -5.55112e-17
340 1 216.649 58.8558 -5.55112e-17
341 1 165.829 41.5396 -5.55112e-17
342 1 143.826 119.524 -5.55112e-17
343 1 160.507 80.6542 -5.55112e-17
344 1 61.2678 71.4331 -5.55112e-17
345 1 124.019 94.9653 -5.55112e-17
346 1 166.819 63.497 -5.55112e-17
347 1 28.7554 106.471 -5.55112e-17
348 1 157.358 8.323 -5.55112e-17
349 1 57.6998 97.5915 -5.55112e-17
350 2 124.816 150.009 -5.55112e-17
351 1 170.571 212.123 -5.55112e-17
352 1 29.4684 203.516 -5.55112e-17
353 1 67.8008 132.544 -5.55112e-17
354 1 182.262 19.0047 -5.55112e-17
355 1 190.316 14.9673 -5.55112e-17
356 1 154.464 147.545 -5.55112e-17
357 1 167.19 215.204 -5.55112e-17
358 1 115.714 211.699 -5.55112e-17
359 1 38.8228 119.903 -5.55112e-17
360 1 193.546 143.932 -5.55112e-17
361 1 134.762 181.625 -5.55112e-17
362 1 207.861 51.7219 -5.55112e-17
363 1 198.074 181.017 -5.55112e-17
364 2 182.638 83.0169 -5.55112e-17
365 1 80.3551 57.0808 -5.55112e-17
366 1 138.068 133.217 -5.55112e-17
367 1 22.3166 98.6181 -5.55112e-17
368 1 204.743 70.8164 -5.55112e-17
369 2 38.9557 106.388 -5.55112e-17
370 1 167.708 190.847 -5.55112e-17
371 1 101.62 176.254 -5.55112e-17
372 2 156.524 37.5346 -5.55112e-17
373 2 100.572 129.278 -5.55112e-17
374 1 138.1 3.6293 -5.55112e-17
375 1 100.09 19.6095 -5.55112e-17
376 1 18.5142 145.308 -5.55112e-17
377 1 134.12 146.133 -5.55112e-17
378 1 165.273 80.0365 -5.55112e-17
379 1 4.02516 44.7489 -5.55112e-17
380 1 129.111 157.017 -5.55112e-17
381 1 176.432 192.13 -5.55112e-17
382 1 113.371 105.062 -5.55112e-17
383 1 86.9352 145.94 -5.55112e-17
384 1 178.493 111.086 -5.55112e-17
385 1 24.0596 114.632 -5.55112e-17
386 2 143.035 55.5546 -5.55112e-17
387 1 14.9038 203.429 -5.55112e-17
388 1 64.1104 114.14 -5.55112e-17
389 1 29.246 25.5666 -5.55112e-17
390 2 182.236 218.978 -5.55112e-17
391 2 153.797 162.934 -5.55112e-17
392 1 88.7743 48.8802 -5.55112e-17
393 1 85.9517 95.4215 -5.55112e-17
394 1 95.464 136.257 -5.55112e-17
395 1 37.7435 68.3577 -5.55112e-17
396 1 141.153 195.257 -5.55112e-17
397 1 111.468 15.778 -5.55112e-17
398 1 151.656 71.3618 -5.55112e-17
399 1 71.3664 210.645 -5.55112e-17
400 1 53.8639 136.871 -5.55112e-17
401 1 98.0326 12.6957 -5.55112e-17
402 2 35.1531 80.7889 -5.55112e-17
403 1 65.31 116.193 -5.55112e-17
404 1 18.7394 214.06 -5.55112e-17
405 1 144.266 164.506 -5.55112e-17
406 1 72.9671 99.1699 -5.55112e-17
407 2 218.169 9.56732 -5.55112e-17
408 1 157.46 192.525 -5.55112e-17
409 1 56.9411 169.598 -5.55112e-17
410 1 19.1387 44.1449 -5.55112e-17
411 1 8.52355 36.9446 -5.55112e-17
412 1 142.654 58.8699 -5.55112e-17
413 1 70.7546 148.242 -5.55112e-17
414 1 21.0234 73.2336 -5.55112e-17
415 1 159.686 152.03 -5.55112e-17
416 1 45.9702 42.1478 -5.55112e-17
417 1 149.654 136.377 -5.55112e-17
418 2 80.4003 34.0949 -5.55112e-17
419 1 93.0619 51.5496 -5.55112e-17
420 2 196.753 52.6354 -5.55112e-17
421 1 123.975 102.238 -5.55112e-17
422 1 142.498 150.757 -5.55112e-17
423 2 47.852 114.818 -5.55112e-17
424 1 124.854 28.2921 -5.55112e-17
425 1 91.5373 0.272752 -5.55112e-17
426 1 13.9498 1.73725 -5.55112e-17
427 1 141.805 31.9124 -5.55112e-17
428 1 152.511 128.08 -5.55112e-17
429 1 117.178 33.866 -5.55112e-17
430 1 155.866 4.64172 -5.55112e-17
431 1 216.462 36.8938 -5.55112e-17
432 1 120.372 72.8639 -5.55112e-17
433 1 139.619 172.784 -5.55112e-17
434 1 33.1294 105.734 -5.55112e-17
435 1 196.364 163.625 -5.55112e-17
436 1 111.143 66.1213 -5.55112e-17
437 1 9.10159 98.7729 -5.55112e-17
438 2 75.9954 72.4906 -5.55112e-17
439 1 47.317 69.6298 -5.55112e-17
440 1 18.7051 138.251 -5.55112e-17
441 1 114.228 127.186 -5.55112e-17
442 1 147.673 86.5171 -5.55112e-17
443 1 63.2163 117.959 -5.55112e-17
444 1 87.2289 184.157 -5.55112e-17
445 1 130.925 202.616 -5.55112e-17
446 1 26.8377 176.301 -5.55112e-17
447 1 103.309 28.9078 -5.55112e-17
448 1 116.339 108.317 -5.55112e-17
449 1 77.4568 69.8143 -5.55112e-17
450 1 80.1221 100.187 -5.55112e-17
451 1 196.681 121.753 -5.55112e-17
452 1 83.5752 66.5826 -5.55112e-17
453 1 105.328 138.303 -5.55112e-17
454 1 5.3882 133.794 -5.55112e-17
455 1 216.181 39.519 -5.55112e-17
456 1 91.9343 192.657 -5.55112e-17
457 1 171.215 61.199 -5.55112e-17
458 1 146.403 173.885 -5.55112e-17
459 1 173.915 100.161 -5.55112e-17
460 1 97.8352 112.255 -5.55112e-17
461 1 35.793 97.9445 -5.55112e-17
462 1 177.247 5.46787 -5.55112e-17
463 1 103.934 188.05 -5.55112e-17
464 1 101.402 109.438 -5.55112e-17
465 1 191.187 3.86911 -5.55112e-17
466 1 196.105 9.82752 -5.55112e-17
467 1 31.1512 177.399 -5.55112e-17
468 1 212.203 79.6271 -5.55112e-17
469 1 72.3854 7.14433 -5.55112e-17
470 1 59.5928 211.607 -5.55112e-17
471 1 178.786 184.992 -5.55112e-17
472 1 139.444 100.089 -5.55112e-17
473 1 85.4846 202.662 -5.55112e-17
474 1 192.042 197.48 -5.55112e-17
475 1 55.1314 182.427 -5.55112e-17
476 2 52.0989 211.256 -5.55112e-17
477 1 214.783 184.083 -5.55112e-17
478 1 177.156 113.13 -5.55112e-17
479 1 93.9673 78.4396 -5.55112e-17
480 1 65.1724 73.917 -5.55112e-17
481 1 62.8737 173.439 -5.55112e-17
482 1 119.212 201.541 -5.55112e-17
483 1 73.0028 181.306 -5.55112e-17
484 2 124.417 87.6042 -5.55112e-17
485 1 174.723 6.15702 -5.55112e-17
486 1 25.9869 45.7259 -5.55112e-17
487 1 71.677 108.332 -5.55112e-17
488 1 48.2521 87.2972 -5.55112e-17
489 1 150.366 18.6889 -5.55112e-17
490 1 78.542 196.292 -5.55112e-17
491 1 148.542 121.68 -5.55112e-17
492 1 100.453 137.245 -5.55112e-17
493 1 130.439 173.33 -5.55112e-17
494 1 113.868 143.544 -5.55112e-17
495 1 167.202 48.3059 -5.55112e-17
496 2 203.257 159.018 -5.55112e-17
497 1 173.541 178.239 -5.55112e-17
498 1 23.3706 7.53628 -5.55112e-17
499 2 113.178 81.9041 -5.55112e-17
500 1 209.741 155.034 -5.55112e-17
501 2 215.646 213.267 -5.55112e-17
502 2 59.5861 192.816 -5.55112e-17
503 1 102.74 127.643 -5.55112e-17
504 1 189.333 183.63 -5.55112e-17
505 1 31.3323 47.8331 -5.55112e-17
506 1 59.6033 209.016 -5.55112e-17
507 1 14.7356 165.111 -5.55112e-17
508 1 111.71 205.676 -5.55112e-17
509 2 63.0701 97.7527 -5.55112e-17
510 2 215.451 206.999 -5.55112e-17
511 1 128.248 174.872 -5.55112e-17
512 2 73.2548 122.227 -5.55112e-17
513 1 6.87076 56.9014 -5.55112e-17
514 1 200.838 8.53642 -5.55112e-17
515 1 149.248 72.6746 -5.55112e-17
516 1 203.19 9.3539 -5.55112e-17
517 1 142.757 200.495 -5.55112e-17
518 2 205 88.5259 -5.55112e-17
519 1 83.6688 61.321 -5.55112e-17
520 2 4.66003 36.2588 -5.55112e-17
521 1 26.85 51.0424 -5.55112e-17
522 1 48.4503 160.109 -5.55112e-17
523 1 68.8879 196.271 -5.55112e-17
524 1 216.903 139.139 -5.55112e-17
525 1 51.1902 198.785 -5.55112e-17
526 1 163.663 33.2396 -5.55112e-17
527 1 117.353 41.1077 -5.55112e-17
528 1 73.195 96.2915 -5.55112e-17
529 1 80.1297 111.722 -5.55112e-17
530 1 82.0939 130.967 -5.55112e-17
531 1 92.6108 212.663 -5.55112e-17
532 1 45.0772 193.291 -5.55112e-17
533 1 152.226 109.166 -5.55112e-17
534 1 2.09503 19.8619 -5.55112e-17
535 1 183.972 23.8471 -5.55112e-17
536 1 140.313 17.8795 -5.55112e-17
537 1 44.7781 209.98 -5.55112e-17
538 1 112.016 210.921 -5.55112e-17
539 1 191.477 62.1301 -5.55112e-17
540 1 98.347 169.774 -5.55112e-17
541 1 198.992 23.6839 -5.55112e-17
542 1 121.73 142.769 -5.55112e-17
543 1 130.338 205.097 -5.55112e-17
544 1 179.967 18.4021 -5.55112e-17
545 1 17.0643 176.9 -5.55112e-17
546 1 164.794 91.7975 -5.55112e-17
547 1 64.3235 10.8932 -5.55112e-17
548 1 202.767 148.859 -5.55112e-17
549 1 76.0543 75.934 -5.55112e-17
550 2 152.797 60.2922 -5.55112e-17
551 2 48.8408 74.7515 -5.55112e-17
552 2 109.742 85.3637 -5.55112e-17
553 1 135.468 15.6494 -5.55112e-17
554 1 38.8654 42.2898 -5.55112e-17
555 2 22.3803 78.0067 -5.55112e-17
556 1 201.568 54.7612 -5.55112e-17
557 1 4.82275 148.613 -5.55112e-17
558 1 183.399 160.306 -5.55112e-17
559 1 56.0577 196.126 -5.55112e-17
560 1 171.387 36.9274 -5.55112e-17
561 1 78.1532 203.327 -5.55112e-17
562 1 190.009 138.747 -5.55112e-17
563 2 206.876 154.883 -5.55112e-17
564 1 41.606 199.998 -5.55112e-17
565 1 5.7942 16.5097 -5.55112e-17
566 1 189.067 189.692 -5.55112e-17
567 1 114.973 216.944 -5.55112e-17
568 1 12.5154 23.3551 -5.55112e-17
569 1 59.8586 55.9801 -5.55112e-17
570 1 159.058 67.7168 -5.55112e-17
571 1 120.946 134.406 -5.55112e-17
572 1 174.802 42.8457 -5.55112e-17
573 1 15.9662 69.1394 -5.55112e-17
574 1 171.222 137.713 -5.55112e-17
575 1 176.862 44.7353 -5.55112e-17
576 1 175.706 95.7144 -5.55112e-17
577 1 118.438 63.7385 -5.55112e-17
578 1 198.211 209.89 -5.55112e-17
579 1 207.509 35.0889 -5.55112e-17
580 1 158.676 82.6847 -5.55112e-17
581 1 191.553 136.685 -5.55112e-17
582 1 151.259 74.223 -5.55112e-17
583 1 121.467 93.9482 -5.55112e-17
584 2 11.4343 20.9803 -5.55112e-17
585 1 52.3578 85.0177 -5.55112e-17
586 1 113.724 180.613 -5.55112e-17
587 1 157.441 156.25 -5.55112e-17
588 1 191.048 120.19 -5.55112e-17
589 1 123.554 113.111 -5.55112e-17
590 1 92.4841 61.8285 -5.55112e-17
591 1 109.456 96.7457 -5.55112e-17
592 1 57.0754 29.2598 -5.55112e-17
593 1 82.7204 13.3301 -5.55112e-17
594 1 166.712 145.853 -5.55112e-17
595 1 49.4064 146.811 -5.55112e-17
596 1 118.271 210.338 -5.55112e-17
597 2 68.0975 178.623 -5.55112e-17
598 1 203.851 206.725 -5.55112e-17
599 1 30.7446 159.43 -5.55112e-17
600 1 199.097 10.3894 -5.55112e-17
601 1 31.5711 167.576 -5.55112e-17
602 1 167.752 31.2949 -5.55112e-17
603 1 176.447 120.205 -5.55112e-17
604 1 120.69 167.144 -5.55112e-17
605 2 49.4564 171.291 -5.55112e-17
606 1 143.497 193.949 -5.55112e-17
607 2 26.1172 73.5333 -5.55112e-17
608 1 157.422 153.602 -5.55112e-17
609 1 140.14 118.842 -5.55112e-17
610 1 47.6029 140.641 -5.55112e-17
611 1 103.226 165.216 -5.55112e-17
612 1 218.67 213.924 -5.55112e-17
613 1 112.247 165.66 -5.55112e-17
614 2 18.1192 41.1198 -5.55112e-17
615 1 125.173 62.1041 -5.55112e-17
616 1 177.998 97.4379 -5.55112e-17
617 1 108.507 65.8221 -5.55112e-17
618 1 164.052 173.864 -5.55112e-17
619 1 154.827 23.7297 -5.55112e-17
620 1 120.982 182.078 -5.55112e-17
621 1 174.12 205.639 -5.55112e-17
622 1 45.2268 198.05 -5.55112e-17
623 1 195.42 7.13424 -5.55112e-17
624 1 31.4105 156.775 -5.55112e-17
625 1 202.276 30.324 -5.55112e-17
626 1 74.7064 28.6173 -5.55112e-17
627 1 91.6592 190.333 -5.55112e-17
628 1 44.5744 48.8314 -5.55112e-17
629 1 141.551 216.363 -5.55112e-17
630 2 142.301 108.882 -5.55112e-17
631 1 23.7584 149.395 -5.55112e-17
632 1 180.626 13.0693 -5.55112e-17
633 1 196.876 25.1952 -5.55112e-17
634 1 170.072 120.315 -5.55112e-17
635 1 48.9455 195.243 -5.55112e-17
636 1 156.216 182.265 -5.55112e-17
637 1 152.401 32.7421 -5.55112e-17
638 1 5.42567 156.164 -5.55112e-17
639 2 66.1113 78.5352 -5.55112e-17
640 1 105.978 6.87622 -5.55112e-17
641 1 163.453 22.8996 -5.55112e-17
642 1 83.6933 42.3569 -5.55112e-17
643 2 194 40.3761 -5.55112e-17
644 1 38.9577 6.35749 -5.55112e-17
645 1 213.423 149.067 -5.55112e-17
646 2 208.992 198.958 -5.55112e-17
647 1 216.465 20.5818 -5.55112e-17
648 1 35.5241 18.3233 -5.55112e-17
649 2 143.886 181.82 -5.55112e-17
650 1 218.168 43.6545 -5.55112e-17
651 1 63.0756 27.7494 -5.55112e-17
652 1 137.109 124.646 -5.55112e-17
653 1 210.071 115.493 -5.55112e-17
654 1 212.819 8.69837 -5.55112e-17
655 2 118.086 135.67 -5.55112e-17
656 1 108.204 5.66525 -5.55112e-17
657 2 114.622 40.7735 -5.55112e-17
658 1 182.045 107.125 -5.55112e-17
659 2 192.667 89.0577 -5.55112e-17
660 1 86.4791 154.762 -5.55112e-17
661 1 140.526 131.648 -5.55112e-17
662 1 174.141 175.323 -5.55112e-17
663 1 133.488 72.594 -5.55112e-17
664 1 67.8778 193.82 -5.55112e-17
665 1 101.086 132.579 -5.55112e-17
666 2 110.635 63.5103 -5.55112e-17
667 1 56.7554 198.314 -5.55112e-17
668 2 182.051 154.899 -5.55112e-17
669 1 140.33 20.392 -5.55112e-17
670 1 69.2158 44.662 -5.55112e-17
671 2 48.0533 197.805 -5.55112e-17
672 1 8.3698 126.623 -5.55112e-17
673 1 170.442 26.5385 -5.55112e-17
674 1 32.1711 85.3839 -5.55112e-17
675 1 203.662 1.81927 -5.55112e-17
676 1 205.882 157.543 -5.55112e-17
677 1 164.477 182.223 -5.55112e-17
678 1 146.681 166.217 -5.55112e-17
679 2 108.79 218.255 -5.55112e-17
680 1 74.4919 52.3931 -5.55112e-17
681 2 56.7947 5.15014 -5.55112e-17
682 1 25.9995 196.158 -5.55112e-17
683 1 72.4866 9.63531 -5.55112e-17
684 1 174.516 24.0353 -5.55112e-17
685 1 135.525 46.4843 -5.55112e-17
686 1 68.3568 148.643 -5.55112e-17
687 1 124.552 196.557 -5.55112e-17
688 1 175.711 60.9193 -5.55112e-17
689 2 50.7678 141.438 -5.55112e-17
690 1 96.6934 121.962 -5.55112e-17
691 1 16.5226 195.381 -5.55112e-17
692 1 27.1997 187.621 -5.55112e-17
693 1 17.4387 8.85759 -5.55112e-17
694 1 20.7687 186.114 -5.55112e-17
695 1 143.892 39.8134 -5.55112e-17
696 1 93.3815 176.837 -5.55112e-17
697 1 185.312 85.1048 -5.55112e-17
698 1 26.9782 131.012 -5.55112e-17
699 1 176.334 21.9676 -5.55112e-17
700 1 9.00502 71.7227 -5.55112e-17
701 1 51.2198 148.627 -5.55112e-17
702 1 170.444 132.737 -5.55112e-17
703 2 216.59 111.43 -5.55112e-17
704 1 153.789 0.431053 -5.55112e-17
705 2 80.8095 180.855 -5.55112e-17
706 1 187.521 124.243 -5.55112e-17
707 1 67.2363 146.563 -5.55112e-17
708 1 94.5037 133.286 -5.55112e-17
709 1 19.4213 55.8445 -5.55112e-17
710 1 216.848 56.3762 -5.55112e-17
711 1 27.0199 120.484 -5.55112e-17
712 1 135.592 35.6242 -5.55112e-17
713 1 146.721 105.375 -5.55112e-17
714 1 132.745 8.29071 -5.55112e-17
715 1 135.238 171.056 -5.55112e-17
716 1 89.0825 190.133 -5.55112e-17
717 1 44.3882 180.725 -5.55112e-17
718 1 184.788 138.771 -5.55112e-17
719 2 98.4881 62.2325 -5.55112e-17
720 1 40.8314 111.316 -5.55112e-17
721 1 189.093 143.4 -5.55112e-17
722 1 68.4673 98.0496 -5.55112e-17
723 2 88.5233 28.5878 -5.55112e-17
724 1 51.5221 179.569 -5.55112e-17
725 1 116.047 120.288 -5.55112e-17
726 1 204.276 73.4271 -5.55112e-17
727 1 114.501 170.744 -5.55112e-17
728 2 181.123 38.9765 -5.55112e-17
729 1 31.8823 136.233 -5.55112e-17
730 1 82.1672 146.015 -5.55112e-17
731 1 185.806 52.8262 -5.55112e-17
732 1 115.226 84.0481 -5.55112e-17
733 1 201.757 59.599 -5.55112e-17
734 1 186.018 55.5166 -5.55112e-17
735 1 1.06818 172.816 -5.55112e-17
736 2 210.359 53.2042 -5.55112e-17
737 1 120.923 120.573 -5.55112e-17
738 1 176.956 156.167 -5.55112e-17
739 1 210.843 185.976 -5.55112e-17
740 1 44.7941 207.622 -5.55112e-17
741 2 194.278 120.376 -5.55112e-17
742 1 211.485 203.994 -5.55112e-17
743 1 96.933 185.157 -5.55112e-17
744 2 126.077 74.3044 -5.55112e-17
745 1 125.251 90.4658 -5.55112e-17
746 1 98.9113 190.026 -5.55112e-17
747 2 24.9048 64.8354 -5.55112e-17
748 1 111.462 203.129 -5.55112e-17
749 1 86.8394 204.76 -5.55112e-17
750 1 25.0714 122.349 -5.55112e-17
751 1 51.4674 68.0163 -5.55112e-17
752 1 140.529 154.425 -5.55112e-17
753 1 95.2802 179.484 -5.55112e-17
754 1 23.7177 3.16268 -5.55112e-17
755 1 188.02 81.5535 -5.55112e-17
756 2 132.938 186.544 -5.55112e-17
757 1 23.3642 159.412 -5.55112e-17
758 1 26.3269 113.08 -5.55112e-17
759 1 112.188 170.178 -5.55112e-17
760 1 133.883 153.196 -5.55112e-17
761 1 69.6596 26.1333 -5.55112e-17
762 1 35.751 23.2466 -5.55112e-17
763 1 207.163 91.5668 -5.55112e-17
764 2 38.8882 200.365 -5.55112e-17
765 1 127.278 214.91 -5.55112e-17
766 1 84.7045 81.2605 -5.55112e-17
767 1 43.0478 91.8412 -5.55112e-17
768 1 128.813 22.975 -5.55112e-17
769 1 116.444 132.708 -5.55112e-17
770 2 53.3852 116.644 -5.55112e-17
771 1 13.6828 136.953 -5.55112e-17
772 1 52.2474 138.649 -5.55112e-17
773 1 123.936 60.2133 -5.55112e-17
774 1 134.874 143.716 -5.55112e-17
775 1 123.598 182.216 -5.55112e-17
776 1 108.071 70.8229 -5.55112e-17
777 1 90.879 17.516 -5.55112e-17
778 1 40.8653 54.073 -5.55112e-17
779 1 81.1271 138.345 -5.55112e-17
780 1 167.095 68.8306 -5.55112e-17
781 1 175.556 77.3711 -5.55112e-17
782 1 6.59731 40.9615 -5.55112e-17
783 1 91.5962 121.45 -5.55112e-17
784 2 136.626 114.606 -5.55112e-17
785 1 101.489 183.564 -5.55112e-17
786 1 20.7636 134.128 -5.55112e-17
787 1 18.0467 133.431 -5.55112e-17
788 1 159.594 95.2202 -5.55112e-17
789 2 1.96681 100.168 -5.55112e-17
790 1 142.326 105.599 -5.55112e-17
791 2 108.776 131.248 -5.55112e-17
792 2 213.917 143.595 -5.55112e-17
793 2 145.156 154.848 -5.55112e-17
794 1 27.1252 145.947 -5.55112e-17
795 1 90.6885 167.909 -5.55112e-17
796 1 96.2207 138.639 -5.55112e-17
797 1 113.355 212.948 -5.55112e-17
798 2 63.7864 84.2751 -5.55112e-17
799 2 202.017 94.7783 -5.55112e-17
800 2 132.457 34.6787 -5.55112e-17
801 1 165.186 201.398 -5.55112e-17
802 1 100.625 93.1992 -5.55112e-17
803 1 16.6761 22.155 -5.55112e-17
804 2 133.888 162.773 -5.55112e-17
805 1 133.355 115.534 -5.55112e-17
806 1 67.9651 183.808 -5.55112e-17
807 2 16.435 0.353341 -5.55112e-17
808 1 96.1842 153.573 -5.55112e-17
809 2 83.5391 209.417 -5.55112e-17
810 1 121.552 101.502 -5.55112e-17
811 1 198.381 158.002 -5.55112e-17
812 1 208.736 187.367 -5.55112e-17
813 2 63.8437 207.28 -5.55112e-17
814 1 75.4103 78.4531 -5.55112e-17
815 1 185.56 21.5585 -5.55112e-17
816 1 214.656 18.9398 -5.55112e-17
817 1 215.891 130.096 -5.55112e-17
818 1 180.224 145.252 -5.55112e-17
819 1 87.83 159.368 -5.55112e-17
820 1 103.153 80.6201 -5.55112e-17
821 1 52.53 100.762 -5.55112e-17
822 2 17.7688 127.862 -5.55112e-17
823 2 218.694 119.493 -5.55112e-17
824 1 88.5444 126.163 -5.55112e-17
825 1 40.5326 28.4932 -5.55112e-17
826 1 160.511 130.263 -5.55112e-17
827 1 11.0115 125.73 -5.55112e-17
828 1 60.5588 27.9536 -5.55112e-17
829 1 59.0964 66.8328 -5.55112e-17
830 1 215.731 171.39 -5.55112e-17
831 1 8.17902 144.711 -5.55112e-17
832 1 95.9915 16.3829 -5.55112e-17
833 1 12.9069 129.963 -5.55112e-17
834 1 151.594 30.4287 -5.55112e-17
835 1 7.05975 187.548 -5.55112e-17
836 1 39.2946 135.145 -5.55112e-17
837 1 216.058 162.893 -5.55112e-17
838 1 179.711 201.299 -5.55112e-17
839 2 5.35485 117.733 -5.55112e-17
840 1 93.1735 54.3474 -5.55112e-17
841 2 115.178 129.949 -5.55112e-17
842 1 130.032 27.4316 -5.55112e-17
843 2 135.894 176.161 -5.55112e-17
844 1 157.829 14.3617 -5.55112e-17
845 1 70.4569 201.306 -5.55112e-17
846 1 93.8143 90.9919 -5.55112e-17
847 1 177.536 144.625 -5.55112e-17
848 1 116.05 52.276 -5.55112e-17
849 1 97.5881 54.416 -5.55112e-17
850 1 66.3109 176.116 -5.55112e-17
851 1 52.3688 172.198 -5.55112e-17
852 1 23.8732 109.494 -5.55112e-17
853 1 157.474 126.857 -5.55112e-17
854 1 71.7796 85.3883 -5.55112e-17
855 1 159.885 24.7679 -5.55112e-17
856 1 90.8797 202.723 -5.55112e-17