ITEM: TIMESTEP
0
ITEM: NUMBER OF ATOMS
7200
ITEM: BOX BOUNDS xy xz yz pp pp pp
0.0000000000000000e+00 2.1900000000000000e+02 0.0000000000000000e+00
0.0000000000000000e+00 2.1900000000000000e+02 0.0000000000000000e+00
-3.6499999999999999e-01 3.6499999999999999e-01 0.0000000000000000e+00
ITEM: ATOMS id type x y z
1 1 96.4038 9.57364 -5.55112e-17
2 1 145.189 199.398 -5.55112e-17
3 1 209.588 82.6905 -5.55112e-17
4 1 55.8748 75.9976 -5.55112e-17
5 1 44.9043 83.3297 -5.55112e-17
6 1 156.567 190.003 -5.55112e-17
7 1 11.1249 4.89408 -5.55112e-17
8 2 149.721 162.474 -5.55112e-17
9 1 190.155 162.746 -5.55112e-17
10 2 46.7573 193.813 -5.55112e-17
11 1 128.854 39.7373 -5.55112e-17
12 1 9.24609 53.8052 -5.55112e-17
13 2 171.528 76.9874 -5.55112e-17
14 1 102.651 136.861 -5.55112e-17
15 1 18.2519 110.444 -5.55112e-17
16 2 157.752 22.6017 -5.55112e-17
17 1 108.441 52.8417 -5.55112e-17
18 2 71.8532 214.742 -5.55112e-17
19 1 81.4641 58.442 -5.55112e-17
20 1 212.305 121.439 -5.55112e-17
21 1 62.3789 5.75401 -5.55112e-17
22 2 66.1403 144.75 -5.55112e-17
23 2 169.335 26.8378 -5.55112e-17
24 1 216.756 203.136 -5.55112e-17
25 1 39.2385 218.15 -5.55112e-17
26 2 43.8542 173.981 -5.55112e-17
27 1 186.349 111.59 -5.55112e-17
28 2 91.807 120.163 -5.55112e-17
29 1 211.393 175.491 -5.55112e-17
30 1 99.2598 156.739 -5.55112e-17
31 1 168.159 10.3432 -5.55112e-17
32 1 57.5513 213.052 -5.55112e-17
33 1 78.4177 160.365 -5.55112e-17
34 1 185.476 66.5414 -5.55112e-17
35 1 158.704 214.047 -5.55112e-17
36 1 171.079 119.661 -5.55112e-17
37 2 174.582 47.0459 -5.55112e-17
38 1 207.32 180.56 -5.55112e-17
39 1 124.067 112.5 -5.55112e-17
40 1 0.977733 186.33 -5.55112e-17
41 1 122.558 24.65 -5.55112e-17
42 1 192.641 102.052 -5.55112e-17
43 1 20.756 25.2125 -5.55112e-17
44 1 176.352 30.0633 -5.55112e-17
45 1 156.511 67.456 -5.55112e-17
46 1 5.68475 4.03941 -5.55112e-17
47 1 99.0813 217.048 -5.55112e-17
48 2 167.091 214.767 -5.55112e-17
49 1 67.1727 212.185 -5.55112e-17
50 1 91.3581 133.569 -5.55112e-17
51 1 208.568 65.2113 -5.55112e-17
52 1 156.256 158.112 -5.55112e-17
53 1 198.986 200.138 -5.55112e-17
54 1 114.91 150.117 -5.55112e-17
55 1 7.01813 117.56 -5.55112e-17
56 1 125.357 110.334 -5.55112e-17
57 2 114.203 34.1307 -5.55112e-17
58 1 66.2552 177.795 -5.55112e-17
59 1 177.571 96.0661 -5.55112e-17
60 2 146.544 97.8413 -5.55112e-17
61 2 218.993 114.154 -5.55112e-17
62 1 10.1234 107.374 -5.55112e-17
63 1 167.748 15.4751 -5.55112e-17
64 1 140.653 176.789 -5.55112e-17
65 1 119.27 189.352 -5.55112e-17
66 1 52.227 95.2292 -5.55112e-17
67 1 152.728 70.6156 -5.55112e-17
68 1 39.2605 29.3539 -5.55112e-17
69 1 89.8857 218.152 -5.55112e-17
70 1 86.7692 63.6296 -5.55112e-17
71 1 217.07 182.252 -5.55112e-17
72 1 143.127 198.07 -5.55112e-17
73 1 101.07 142.71 -5.55112e-17
74 1 31.6091 66.1708 -5.55112e-17
75 2 108.286 44.4108 -5.55112e-17
76 1 80.4408 53.0195 -5.55112e-17
77 1 165.755 164.585 -5.55112e-17
78 1 48.242 106.826 -5.55112e-17
79 2 190.772 52.1509 -5.55112e-17
80 1 53.6452 125.226 -5.55112e-17
81 1 139.321 95.139 -5.55112e-17
82 1 106.059 209.824 -5.55112e-17
83 2 146.46 33.0966 -5.55112e-17
84 1 213.244 40.9924 -5.55112e-17
85 1 15.0083 186.708 -5.55112e-17
86 1 180.043 95.4826 -5.55112e-17
87 1 132.121 145.004 -5.55112e-17
88 1 183.592 198.917 -5.55112e-17
89 2 25.2721 70.7508 -5.55112e-17
90 2 0.956165 64.2622 -5.55112e-17
91 1 200.654 187.214 -5.55112e-17
92 2 207.637 203.899 -5.55112e-17
93 1 12.8074 15.5126 -5.55112e-17
94 2 66.5934 36.777 -5.55112e-17
95 1 4.25457 90.4746 -5.55112e-17
96 1 169.432 74.8464 -5.55112e-17
97 1 31.6245 214.338 -5.55112e-17
98 1 116.214 31.5636 -5.55112e-17
99 1 96.7797 206.44 -5.55112e-17
100 1 37.1736 73.2544 -5.55112e-17
101 1 62.6733 75.0436 -5.55112e-17
102 1 202.466 141.431 -5.55112e-17
103 1 193.578 172.596 -5.55112e-17
104 1 215.629 77.054 -5.55112e-17
105 1 137.835 56.8986 -5.55112e-17
106 1 76.6567 49.9815 -5.55112e-17
107 2 175.009 27.5788 -5.55112e-17
108 1 148.308 18.6704 -5.55112e-17
109 1 110.029 88.6355 -5.55112e-17
110 1 152.826 87.5982 -5.55112e-17
111 1 28.0132 67.3848 -5.55112e-17
112 1 120.078 151.415 -5.55112e-17
113 1 144.904 53.0235 -5.55112e-17
114 1 21.6204 198.962 -5.55112e-17
115 1 15.5258 159.655 -5.55112e-17
116 2 196.749 155.541 -5.55112e-17
117 1 203.122 101.93 -5.55112e-17
118 1 27.7776 4.59055 -5.55112e-17
119 2 88.7162 45.1231 -5.55112e-17
120 1 201.267 55.2741 -5.55112e-17
121 1 146.926 217.336 -5.55112e-17
122 1 39.8224 72.1237 -5.55112e-17
123 1 154.395 144.113 -5.55112e-17
124 1 139.67 6.11809 -5.55112e-17
125 1 136.098 155.202 -5.55112e-17
126 1 48.8758 200.135 -5.55112e-17
127 1 14.6334 70.2489 -5.55112e-17
128 1 148.107 110.845 -5.55112e-17
129 1 4.75973 156.865 -5.55112e-17
130 1 122.43 125.552 -5.55112e-17
131 1 210.674 70.2569 -5.55112e-17
132 2 183.888 4.32156 -5.55112e-17
133 1 113.917 145.038 -5.55112e-17
134 1 143.031 51.4716 -5.55112e-17
135 1 141.29 174.225 -5.55112e-17
136 1 47.6474 45.8738 -5.55112e-17
137 1 192.684 195.331 -5.55112e-17
138 1 163.76 60.0471 -5.55112e-17
139 1 201.633 134.338 -5.55112e-17
140 2 182.984 185.734 -5.55112e-17
141 1 135.075 101.003 -5.55112e-17
142 2 67.698 113.395 -5.55112e-17
143 1 53.2045 104.846 -5.55112e-17
144 2 91.6917 81.5522 -5.55112e-17
145 1 42.3578 176.438 -5.55112e-17
146 1 164.104 174.287 -5.55112e-17
147 1 147.135 157.818 -5.55112e-17
148 1 44.616 153.192 -5.55112e-17
149 1 9.79075 19.3968 -5.55112e-17
150 1 148.25 50.0672 -5.55112e-17
151 1 54.0516 152.665 -5.55112e-17
152 1 186.065 142.803 -5.55112e-17
153 2 55.6555 192.311 -5.55112e-17
154 1 134.007 116.559 -5.55112e-17
155 1 130.469 57.6386 -5.55112e-17
156 2 18.8073 140.072 -5.55112e-17
157 1 209.127 91.3613 -5.55112e-17
158 1 155.547 36.1595 -5.55112e-17
159 1 171.357 154.329 -5.55112e-17
160 1 52.2195 188.562 -5.55112e-17
161 1 100.948 134.813 -5.55112e-17
162 1 40.9223 153.206 -5.55112e-17
163 1 124.635 53.6611 -5.55112e-17
164 1 63.4377 90.1143 -5.55112e-17
165 1 34.0817 160.61 -5.55112e-17
166 2 188.548 76.6081 -5.55112e-17
167 1 151.567 217.952 -5.55112e-17
168 1 205.366 110.239 -5.55112e-17
169 1 186.63 138.317 -5.55112e-17
170 1 78.7831 218.285 -5.55112e-17
171 1 195.7 79.6061 -5.55112e-17
172 1 160.919 23.6992 -5.55112e-17
173 1 59.6606 179.489 -5.55112e-17
174 1 8.1179 112.621 -5.55112e-17
175 2 176.492 156.696 -5.55112e-17
176 1 40.1605 161.861 -5.55112e-17
177 2 214.415 66.134 -5.55112e-17
178 1 97.0376 15.419 -5.55112e-17
179 1 165.628 102.276 -5.55112e-17
180 1 214.641 84.273 -5.55112e-17
181 1 217.413 162.057 -5.55112e-17
182 2 1.54802 75.1673 -5.55112e-17
183 1 105.65 108.716 -5.55112e-17
184 1 7.47343 83.1152 -5.55112e-17
185 2 148.133 188.034 -5.55112e-17
186 2 139.063 116.163 -5.55112e-17
187 1 178.519 6.92843 -5.55112e-17
188 1 146.872 4.57685 -5.55112e-17
189 1 118.15 55.755 -5.55112e-17
190 2 144.462 207.645 -5.55112e-17
191 1 65.5732 60.2653 -5.55112e-17
192 2 133.949 75.5648 -5.55112e-17
193 2 91.8067 203.374 -5.55112e-17
194 1 157.152 89.4093 -5.55112e-17
195 1 217.235 168.049 -5.55112e-17
196 1 17.1073 56.6507 -5.55112e-17
197 1 52.0515 59.993 -5.55112e-17
198 2 61.0607 113.775 -5.55112e-17
199 1 164.281 65.941 -5.55112e-17
200 1 71.6714 208.891 -5.55112e-17
201 2 212.429 82.1409 -5.55112e-17
202 1 175.186 149.411 -5.55112e-17
203 1 56.0171 148.31 -5.55112e-17
204 1 97.5968 158.391 -5.55112e-17
205 2 197.901 123.671 -5.55112e-17
206 1 142.156 84.2323 -5.55112e-17
207 1 121.698 139.334 -5.55112e-17
208 1 123.866 144.415 -5.55112e-17
209 1 106.716 30.68 -5.55112e-17
210 1 179.401 71.0518 -5.55112e-17
211 2 210.372 156.559 -5.55112e-17
212 1 110.61 193.424 -5.55112e-17
213 1 153.952 59.4195 -5.55112e-17
214 1 136.668 54.6292 -5.55112e-17
215 1 135.638 20.6031 -5.55112e-17
216 1 92.4666 162.387 -5.55112e-17
217 1 64.506 157.515 -5.55112e-17
218 2 168.076 107.434 -5.55112e-17
219 1 100.785 152.567 -5.55112e-17
220 2 83.2115 157.663 -5.55112e-17
221 1 21.4282 138.116 -5.55112e-17
222 1 174.824 80.4467 -5.55112e-17
223 1 28.3266 192.124 -5.55112e-17
224 2 208.845 217.669 -5.55112e-17
225 1 120.992 153.826 -5.55112e-17
226 1 218.631 188.564 -5.55112e-17
227 2 24.3889 197.803 -5.55112e-17
228 1 103.489 168.167 -5.55112e-17
229 1 50.2377 79.1456 -5.55112e-17
230 1 185.627 53.2591 -5.55112e-17
231 1 140.363 123.682 -5.55112e-17
232 1 3.86906 177.4 -5.55112e-17
233 1 71.7621 193.922 -5.55112e-17
234 1 149.162 62.8982 -5.55112e-17
235 1 19.3585 136.775 -5.55112e-17
236 1 206.081 35.5027 -5.55112e-17
237 1 24.2859 139.471 -5.55112e-17
238 1 119.806 111.73 -5.55112e-17
239 2 25.0058 149.439 -5.55112e-17
240 1 164.842 171.952 -5.55112e-17
241 2 89.1314 204.98 -5.55112e-17
242 2 2.36519 16.3334 -5.55112e-17
243 2 84.8777 7.26066 -5.55112e-17
244 1 26.4618 119.702 -5.55112e-17
245 1 94.4463 157.487 -5.55112e-17
246 1 196.734 199.513 -5.55112e-17
247 1 195.798 139.427 -5.55112e-17
248 1 115.213 65.4646 -5.55112e-17
249 1 9.43202 174.918 -5.55112e-17
250 2 35.249 20.728 -5.55112e-17
251 1 146.324 145.233 -5.55112e-17
252 1 204.803 210.417 -5.55112e-17
253 1 136.693 171.232 -5.55112e-17
254 2 162.852 179.563 -5.55112e-17
255 1 176.669 200.16 -5.55112e-17
256 1 106.611 28.0278 -5.55112e-17
257 1 19.8847 188.404 -5.55112e-17
258 2 90.1367 34.9462 -5.55112e-17
259 1 6.69042 90.7929 -5.55112e-17
260 1 107.771 150.143 -5.55112e-17
261 1 150.196 175.231 -5.55112e-17
262 1 55.6394 103.752 -5.55112e-17
263 1 2.52775 86.2464 -5.55112e-17
264 1 190.062 120.872 -5.55112e-17
265 1 181.301 20.1754 -5.55112e-17
266 1 170.376 50.8395 -5.55112e-17
267 1 154.487 133.647 -5.55112e-17
268 1 48.7143 9.4553 -5.55112e-17
269 1 22.7484 130.736 -5.55112e-17
270 1 67.3361 50.0083 -5.55112e-17
271 1 171.564 200.659 -5.55112e-17
272 1 214.428 152.061 -5.55112e-17
273 1 65.2296 51.2051 -5.55112e-17
274 2 96.7795 115.108 -5.55112e-17
275 1 210.794 184.555 -5.55112e-17
276 2 19.9111 56.4047 -5.55112e-17
277 2 166.883 73.0827 -5.55112e-17
278 1 104.623 216.533 -5.55112e-17
279 2 93.9289 74.2492 -5.55112e-17
280 1 213.838 43.3805 -5.55112e-17
281 1 114.327 177.373 -5.55112e-17
282 1 120.853 160.779 -5.55112e-17
283 1 88.1813 160.334 -5.55112e-17
284 1 112.636 194.546 -5.55112e-17
285 1 32.027 179.37 -5.55112e-17
286 2 157.527 178.128 -5.55112e-17
287 1 191.901 177.928 -5.55112e-17
288 1 199.252 68.2253 -5.55112e-17
289 1 91.4572 128.153 -5.55112e-17
290 1 34.243 135.895 -5.55112e-17
291 1 66.2442 152.789 -5.55112e-17
292 2 75.1544 161.472 -5.55112e-17
293 2 201.299 115.975 -5.55112e-17
294 1 159.565 27.6062 -5.55112e-17
295 1 134.381 55.1488 -5.55112e-17
296 1 16.6426 6.06378 -5.55112e-17
297 1 14.4991 166.461 -5.55112e-17
298 1 170.575 195.097 -5.55112e-17
299 1 125.547 135.495 -5.55112e-17
300 2 56.4688 154.173 -5.55112e-17
301 1 174.223 44.0562 -5.55112e-17
302 1 132.861 161.517 -5.55112e-17
303 2 146.161 55.5288 -5.55112e-17
304 2 181.892 150.287 -5.55112e-17
305 1 127.372 175.2 -5.55112e-17
306 1 93.2703 40.3545 -5.55112e-17
307 1 44.4362 165.245 -5.55112e-17
308 1 73.4945 38.1321 -5.55112e-17
309 2 103.788 153.371 -5.55112e-17
310 1 17.0259 49.4916 -5.55112e-17
311 1 61.3626 97.119 -5.55112e-17
312 1 106.05 132.013 -5.55112e-17
313 2 138.161 3.44675 -5.55112e-17
314 1 134.658 40.7045 -5.55112e-17
315 1 9.24975 140.762 -5.55112e-17
316 1 136.282 213.023 -5.55112e-17
317 1 203.33 108.705 -5.55112e-17
318 1 156.262 168.578 -5.55112e-17
319 1 64.1899 193.704 -5.55112e-17
320 1 208.206 187.972 -5.55112e-17
321 1 207.273 111.925 -5.55112e-17
322 1 69.1068 71.3817 -5.55112e-17
323 1 51.862 167.274 -5.55112e-17
324 1 138.97 42.077 -5.55112e-17
325 1 145.26 210.626 -5.55112e-17
326 1 30.3681 68.4435 -5.55112e-17
327 2 172.081 70.4545 -5.55112e-17
328 1 124.705 210.59 -5.55112e-17
329 2 1.10306 60.8661 -5.55112e-17
330 1 201.238 178.29 -5.55112e-17
331 1 191.582 217.824 -5.55112e-17
332 2 178.287 63.405 -5.55112e-17
333 1 28.292 38.196 -5.55112e-17
334 1 111.315 48.969 -5.55112e-17
335 1 15.3957 11.5944 -5.55112e-17
336 1 169.063 125.028 -5.55112e-17
337 1 167.911 34.1272 -5.55112e-17
338 1 169.552 23.306 -5.55112e-17
339 1 208.974 174.942 -5.55112e-17
340 1 167.361 104.662 -5.55112e-17
341 1 136.116 18.0075 -5.55112e-17
342 1 206.315 118.064 -5.55112e-17
343 1 208.693 74.5959 -5.55112e-17
344 1 14.0587 26.5491 -5.55112e-17
345 1 75.8497 25.811 -5.55112e-17
346 1 190.967 115.486 -5.55112e-17
347 1 31.5385 31.0532 -5.55112e-17
348 1 124.142 4.88816 -5.55112e-17
349 1 54.6809 94.9389 -5.55112e-17
350 2 105.71 176.228 -5.55112e-17
351 1 174.028 3.68672 -5.55112e-17
352 1 151.04 188.821 -5.55112e-17
353 1 78.6301 177.227 -5.55112e-17
354 1 151.798 212.125 -5.55112e-17
355 1 149.251 190.684 -5.55112e-17
356 1 17.9824 160.758 -5.55112e-17
357 1 147.598 115.513 -5.55112e-17
358 1 37.7623 204.016 -5.55112e-17
359 1 2.33973 147.401 -5.55112e-17
360 1 4.8329 122.073 -5.55112e-17
361 1 140.235 1.52545 -5.55112e-17
362 1 179.546 200.593 -5.55112e-17
363 1 177.514 209.276 -5.55112e-17
364 2 208.815 94.3189 -5.55112e-17
365 1 77.3865 89.022 -5.55112e-17
366 1 138.317 136.771 -5.55112e-17
367 1 30.7021 90.3406 -5.55112e-17
368 1 210.646 99.5397 -5.55112e-17
369 2 68.0194 175.409 -5.55112e-17
370 1 91.9183 125.42 -5.55112e-17
371 1 63.8868 206.221 -5.55112e-17
372 2 186.809 73.882 -5.55112e-17
373 2 138.48 11.393 -5.55112e-17
374 1 138.804 49.8378 -5.55112e-17
375 1 110.031 187.657 -5.55112e-17
376 1 14.4953 217.302 -5.55112e-17
377 1 161.924 198.215 -5.55112e-17
378 1 67.7056 119.319 -5.55112e-17
379 1 37.0057 28.2951 -5.55112e-17
380 1 171.896 180.757 -5.55112e-17
381 1 175.712 106.846 -5.55112e-17
382 1 100.999 59.1605 -5.55112e-17
383 1 67.0837 78.2586 -5.55112e-17
384 1 61.3361 99.5129 -5.55112e-17
385 1 81.0267 55.7144 -5.55112e-17
386 2 105.943 14.3423 -5.55112e-17
387 1 184.781 208.8 -5.55112e-17
388 1 76.549 136.935 -5.55112e-17
389 1 91.5269 46.2531 -5.55112e-17
390 2 150.672 172.408 -5.55112e-17
391 2 14.2497 154.881 -5.55112e-17
392 1 141.843 193.41 -5.55112e-17
393 1 91.2659 130.859 -5.55112e-17
394 1 87.6465 85.1466 -5.55112e-17
395 1 22.2076 13.0407 -5.55112e-17
396 1 93.3283 213.637 -5.55112e-17
397 1 204.069 200.794 -5.55112e-17
398 1 1.15511 67.0154 -5.55112e-17
399 1 141.667 30.7217 -5.55112e-17
400 1 90.6438 138.491 -5.55112e-17
401 1 70.5288 204.563 -5.55112e-17
402 2 40.031 94.6094 -5.55112e-17
403 1 215.531 117.89 -5.55112e-17
404 1 191.91 127.58 -5.55112e-17
405 1 151.939 143.294 -5.55112e-17
406 1 199.357 59.5437 -5.55112e-17
407 2 3.86861 27.1846 -5.55112e-17
408 1 40.8404 174.422 -5.55112e-17
409 1 80.3391 128.357 -5.55112e-17
410 1 73.9609 5.07854 -5.55112e-17
411 1 194.608 94.6237 -5.55112e-17
412 1 117.226 134.343 -5.55112e-17
413 1 55.4922 159.621 -5.55112e-17
414 1 61.1972 24.8102 -5.55112e-17
415 1 142.522 107.366 -5.55112e-17
416 1 4.34819 70.2355 -5.55112e-17
417 1 158.887 76.9593 -5.55112e-17
418 2 211.193 5.14144 -5.55112e-17
419 1 117.077 197.253 -5.55112e-17
420 2 149.783 107.834 -5.55112e-17
421 1 152.45 114.303 -5.55112e-17
422 1 146.315 12.2312 -5.55112e-17
423 2 197.658 111.633 -5.55112e-17
424 1 195.319 124.239 -5.55112e-17
425 1 129.764 24.7212 -5.55112e-17
426 1 0.487012 160.589 -5.55112e-17
427 1 179.95 46.455 -5.55112e-17
428 1 68.0154 124.155 -5.55112e-17
429 1 163.275 109.143 -5.55112e-17
430 1 205.443 191.765 -5.55112e-17
431 1 194.612 190.322 -5.55112e-17
432 1 69.2661 213.325 -5.55112e-17
433 1 7.35875 189.47 -5.55112e-17
434 1 92.4422 87.0062 -5.55112e-17
435 1 136.118 176.467 -5.55112e-17
436 1 78.3473 34.4519 -5.55112e-17
437 1 182.267 165.426 -5.55112e-17
438 2 77.7291 67.2921 -5.55112e-17
439 1 56.6524 21.3022 -5.55112e-17
440 1 189.339 49.229 -5.55112e-17
441 1 141.288 114.3 -5.55112e-17
442 1 122.031 53.5541 -5.55112e-17
443 1 133.245 102.775 -5.55112e-17
444 1 143.904 60.8174 -5.55112e-17
445 1 151.153 7.09189 -5.55112e-17
446 1 144.222 167.998 -5.55112e-17
447 1 13.1122 28.8255 -5.55112e-17
448 1 23.5554 213.333 -5.55112e-17
449 1 114.845 29.206 -5.55112e-17
450 1 11.9954 36.2931 -5.55112e-17
451 1 178.295 143.281 -5.55112e-17
452 1 120.907 200.077 -5.55112e-17
453 1 169.086 141.451 -5.55112e-17
454 1 214.95 162.535 -5.55112e-17
455 1 203.348 9.42847 -5.55112e-17
456 1 213.245 215.629 -5.55112e-17
457 1 32.6064 55.5943 -5.55112e-17
458 1 148.941 42.8248 -5.55112e-17
459 1 91.4303 11.3047 -5.55112e-17
460 1 132.611 38.4782 -5.55112e-17
461 1 80.9546 153.879 -5.55112e-17
462 1 22.583 64.2079 -5.55112e-17
463 1 172.042 215.355 -5.55112e-17
464 1 128.65 50.8947 -5.55112e-17
465 1 145.805 50.6573 -5.55112e-17
466 1 5.19494 53.4819 -5.55112e-17
467 1 34.9318 15.3958 -5.55112e-17
468 1 192.123 158.32 -5.55112e-17
469 1 119.119 162.853 -5.55112e-17
470 1 110.789 99.9949 -5.55112e-17
471 1 216.26 188.868 -5.55112e-17
472 1 95.8205 28.4939 -5.55112e-17
473 1 108.138 177.573 -5.55112e-17
474 1 118.189 100.22 -5.55112e-17
475 1 41.6021 128.414 -5.55112e-17
476 2 43.6473 32.5638 -5.55112e-17
477 1 198.512 9.12479 -5.55112e-17
478 1 215.79 127.634 -5.55112e-17
479 1 51.4558 137.655 -5.55112e-17
480 1 69.1079 35.4443 -5.55112e-17
481 1 29.2849 119.55 -5.55112e-17
482 1 153.124 13.7582 -5.55112e-17
483 1 119.402 165.419 -5.55112e-17
484 2 68.293 6.45661 -5.55112e-17
485 1 26.1809 172.292 -5.55112e-17
486 1 12.9429 92.6159 -5.55112e-17
487 1 86.2212 214.438 -5.55112e-17
488 1 50.8959 45.0046 -5.55112e-17
489 1 187.111 34.6393 -5.55112e-17
490 1 85.1811 22.8227 -5.55112e-17
491 1 127.314 150.339 -5.55112e-17
492 1 86.4122 121.965 -5.55112e-17
493 1 152.041 204.063 -5.55112e-17
494 1 120.173 33.8529 -5.55112e-17
495 1 115.386 18.7765 -5.55112e-17
496 2 132.505 24.5426 -5.55112e-17
497 1 196.149 206.338 -5.55112e-17
498 1 58.7348 188.139 -5.55112e-17
499 2 105.662 51.8396 -5.55112e-17
500 1 183.907 172.769 -5.55112e-17
501 2 166.31 7.85345 -5.55112e-17
502 2 101.394 195.172 -5.55112e-17
503 1 182.209 188.723 -5.55112e-17
504 1 186.567 150.535 -5.55112e-17
505 1 47.2021 38.9585 -5.55112e-17
506 1 112.177 175.888 -5.55112e-17
507 1 90.3319 141.109 -5.55112e-17
508 1 199.439 215.229 -5.55112e-17
509 2 30.8191 106.424 -5.55112e-17
510 2 85.8079 174.437 -5.55112e-17
511 1 140.981 143.804 -5.55112e-17
512 2 51.8095 134.852 -5.55112e-17
513 1 68.519 182.783 -5.55112e-17
514 1 25.5968 67.9616 -5.55112e-17
515 1 87.3349 26.2742 -5.55112e-17
516 1 33.1395 113.384 -5.55112e-17
517 1 155.235 197.475 -5.55112e-17
518 2 117.091 157.718 -5.55112e-17
519 1 188.104 41.9109 -5.55112e-17
520 2 6.99775 100.549 -5.55112e-17
521 1 161.444 118.272 -5.55112e-17
522 1 36.1005 200.055 -5.55112e-17
523 1 13.9804 163.858 -5.55112e-17
524 1 4.70376 14.698 -5.55112e-17
525 1 60.2919 159.102 -5.55112e-17
526 1 181.938 48.5092 -5.55112e-17
527 1 25.0275 44.4255 -5.55112e-17
528 1 82.601 65.8587 -5.55112e-17
529 1 68.6663 129.272 -5.55112e-17
530 1 102.557 79.6382 -5.55112e-17
531 1 137.546 210.581 -5.55112e-17
532 1 155.343 12.2652 -5.55112e-17
533 1 56.3838 70.8183 -5.55112e-17
534 1 154.271 192.079 -5.55112e-17
535 1 166.588 174.472 -5.55112e-17
536 1 140.117 82.7764 -5.55112e-17
537 1 22.1134 187.386 -5.55112e-17
538 1 122.789 51.5368 -5.55112e-17
539 1 23.5834 41.3931 -5.55112e-17
540 1 125.746 9.38286 -5.55112e-17
541 1 132.966 186.377 -5.55112e-17
542 1 73.4318 32.8353 -5.55112e-17
543 1 99.6155 29.6577 -5.55112e-17
544 1 174.507 1.00199 -5.55112e-17
545 1 8.15136 192.464 -5.55112e-17
546 1 206.744 167.948 -5.55112e-17
547 1 192.572 160.907 -5.55112e-17
548 1 24.911 181.023 -5.55112e-17
549 1 2.24777 36.4722 -5.55112e-17
550 2 181.299 120.275 -5.55112e-17
551 2 80.3006 89.6003 -5.55112e-17
552 2 104.182 26.4579 -5.55112e-17
553 1 155.286 20.4023 -5.55112e-17
554 1 184.003 90.4103 -5.55112e-17
555 2 193.324 92.1634 -5.55112e-17
556 1 104.312 54.5986 -5.55112e-17
557 1 59.3483 84.8239 -5.55112e-17
558 1 162.463 16.1304 -5.55112e-17
559 1 183.052 9.61816 -5.55112e-17
560 1 162.252 212.311 -5.55112e-17
561 1 16.777 167.8 -5.55112e-17
562 1 208.675 200.953 -5.55112e-17
563 2 5.75224 162.804 -5.55112e-17
564 1 33.0083 176.838 -5.55112e-17
565 1 134.743 169.383 -5.55112e-17
566 1 46.4014 117.203 -5.55112e-17
567 1 113.754 67.4741 -5.55112e-17
568 1 192.214 119.508 -5.55112e-17
569 1 20.3667 158.575 -5.55112e-17
570 1 99.1493 120.594 -5.55112e-17
571 1 197.807 158.496 -5.55112e-17
572 1 130.682 27.1159 -5.55112e-17
573 1 167.426 148.405 -5.55112e-17
574 1 161.176 144.95 -5.55112e-17
575 1 20.4828 86.7721 -5.55112e-17
576 1 165.64 116.679 -5.55112e-17
577 1 159.131 6.28704 -5.55112e-17
578 1 115.927 213.596 -5.55112e-17
579 1 3.90368 55.7308 -5.55112e-17
580 1 42.3985 13.087 -5.55112e-17
581 1 70.5096 167.794 -5.55112e-17
582 1 179.268 214.015 -5.55112e-17
583 1 19.8672 38.0248 -5.55112e-17
584 2 183.467 22.29 -5.55112e-17
585 1 11.7788 153.013 -5.55112e-17
586 1 142.729 86.5216 -5.55112e-17
587 1 162.966 187.286 -5.55112e-17
588 1 71.7222 135.607 -5.55112e-17
589 1 155.307 179.725 -5.55112e-17
590 1 107.024 19.7541 -5.55112e-17
591 1 190.016 188.294 -5.55112e-17
592 1 12.7554 77.9211 -5.55112e-17
593 1 2.46186 175.23 -5.55112e-17
594 1 40.1274 203.33 -5.55112e-17
595 1 63.2465 60.9894 -5.55112e-17
596 1 76.1977 191.223 -5.55112e-17
597 2 38.0106 12.223 -5.55112e-17
598 1 24.1122 19.8761 -5.55112e-17
599 1 42.0029 205.463 -5.55112e-17
600 1 179.582 81.6299 -5.55112e-17
601 1 76.7153 142.624 -5.55112e-17
602 1 151.732 58.2596 -5.55112e-17
603 1 39.454 145.553 -5.55112e-17
604 1 67.8758 167.181 -5.55112e-17
605 2 102.645 124.698 -5.55112e-17
606 1 195.375 203.653 -5.55112e-17
607 2 200.479 189.914 -5.55112e-17
608 1 215.255 191.333 -5.55112e-17
609 1 206.781 170.619 -5.55112e-17
610 1 192.419 163.204 -5.55112e-17
611 1 80.8959 156.348 -5.55112e-17
612 1 2.1734 29.3074 -5.55112e-17
613 1 147.115 147.766 -5.55112e-17
614 2 0.393688 214.618 -5.55112e-17
615 1 82.5541 185.797 -5.55112e-17
616 1 140.02 85.3791 -5.55112e-17
617 1 89.3189 1.76186 -5.55112e-17
618 1 168.699 190.867 -5.55112e-17
619 1 164.023 126.04 -5.55112e-17
620 1 172.932 11.3718 -5.55112e-17
621 1 114.223 77.0855 -5.55112e-17
622 1 114.657 7.80708 -5.55112e-17
623 1 19.5105 180.55 -5.55112e-17
624 1 71.5293 199.461 -5.55112e-17
625 1 138.939 8.63702 -5.55112e-17
626 1 41.5623 198.318 -5.55112e-17
627 1 113.119 142.306 -5.55112e-17
628 1 58.3593 5.65182 -5.55112e-17
629 1 200.419 41.7195 -5.55112e-17
630 2 94.8475 85.8166 -5.55112e-17
631 1 15.9166 72.1569 -5.55112e-17
632 1 200.433 83.3252 -5.55112e-17
633 1 54.1132 168.29 -5.55112e-17
634 1 186.474 213.719 -5.55112e-17
635 1 79.9149 184.684 -5.55112e-17
636 1 185.685 37.1461 -5.55112e-17
637 1 186.697 79.112 -5.55112e-17
638 1 17.2671 79.0666 -5.55112e-17
639 2 46.1286 54.5136 -5.55112e-17
640 1 107.974 167.067 -5.55112e-17
641 1 141.175 119.219 -5.55112e-17
642 1 68.6222 218.688 -5.55112e-17
643 2 144.33 216.11 -5.55112e-17
644 1 63.8026 3.58381 -5.55112e-17
645 1 73.2361 152.371 -5.55112e-17
646 2 218.514 86.875 -5.55112e-17
647 1 173.735 6.26037 -5.55112e-17
648 1 180.387 61.477 -5.55112e-17
649 2 109.73 162.602 -5.55112e-17
650 1 201.81 94.7054 -5.55112e-17
651 1 205.29 214.65 -5.55112e-17
652 1 196.063 180.705 -5.55112e-17
653 1 7.61705 107.665 -5.55112e-17
654 1 217.212 186.357 -5.55112e-17
655 2 2.16686 116.612 -5.55112e-17
656 1 66.6352 173.151 -5.55112e-17
657 2 132.271 5.34822 -5.55112e-17
658 1 216.606 49.6261 -5.55112e-17
659 2 188.785 143.255 -5.55112e-17
660 1 41.9921 18.3648 -5.55112e-17
661 1 159.56 134.241 -5.55112e-17
662 1 89.6341 126.343 -5.55112e-17
663 1 80.7588 41.0825 -5.55112e-17
664 1 93.972 45.7489 -5.55112e-17
665 1 143.123 88.9857 -5.55112e-17
666 2 122.958 34.9061 -5.55112e-17
667 1 137.923 133.97 -5.55112e-17
668 2 137.011 157.7 -5.55112e-17
669 1 79.0067 15.9747 -5.55112e-17
670 1 135.499 185.901 -5.55112e-17
671 2 68.0856 150.35 -5.55112e-17
672 1 106.841 41.9072 -5.55112e-17
673 1 49.8851 98.5727 -5.55112e-17
674 1 10.0197 121.696 -5.55112e-17
675 1 157.821 37.9567 -5.55112e-17
676 1 165.755 96.2433 -5.55112e-17
677 1 6.54952 170.94 -5.55112e-17
678 1 199.928 195.739 -5.55112e-17
679 2 153.853 189.27 -5.55112e-17
680 1 211.283 72.9382 -5.55112e-17
681 2 192.495 65.0175 -5.55112e-17
682 1 32.7903 171.514 -5.55112e-17
683 1 32.4628 168.945 -5.55112e-17
684 1 126.291 195.849 -5.55112e-17
685 1 129.684 48.5256 -5.55112e-17
686 1 96.0712 90.7696 -5.55112e-17
687 1 3.85738 170.327 -5.55112e-17
688 1 191.551 97.5451 -5.55112e-17
689 2 64.0841 31.863 -5.55112e-17
690 1 113 107.786 -5.55112e-17
691 1 56.2065 101.283 -5.55112e-17
692 1 102.106 160.284 -5.55112e-17
693 1 80.5562 67.3962 -5.55112e-17
694 1 17.7118 12.8557 -5.55112e-17
695 1 26.9108 95.5475 -5.55112e-17
696 1 123.496 137.27 -5.55112e-17
697 1 158.827 152.93 -5.55112e-17
698 1 112.201 89.8586 -5.55112e-17
699 1 208.692 117.187 -5.55112e-17
700 1 64.7501 191.388 -5.55112e-17
701 1 47.7759 94.4994 -5.55112e-17
702 1 19.6939 100.727 -5.55112e-17
703 2 43.0829 138.758 -5.55112e-17
704 1 152.391 193.835 -5.55112e-17
705 2 117.823 173.311 -5.55112e-17
706 1 14.6699 130.297 -5.55112e-17
707 1 117.411 81.0086 -5.55112e-17
708 1 107.743 122.812 -5.55112e-17
709 1 34.5339 167.345 -5.55112e-17
710 1 9.51852 56.232 -5.55112e-17
711 1 90.1558 161.554 -5.55112e-17
712 1 216.311 91.6768 -5.55112e-17
713 1 107.777 6.97478 -5.55112e-17
714 1 156.267 58.111 -5.55112e-17
715 1 17.722 22.0457 -5.55112e-17
716 1 98.1728 176.207 -5.55112e-17
717 1 97.8618 163.899 -5.55112e-17
718 1 157.625 84.7467 -5.55112e-17
719 2 98.978 17.4289 -5.55112e-17
720 1 113.082 70.2533 -5.55112e-17
721 1 173.734 140.851 -5.55112e-17
722 1 69.8153 59.468 -5.55112e-17
723 2 217.204 94.7942 -5.55112e-17
724 1 67.4554 180.567 -5.55112e-17
725 1 5.60083 39.6489 -5.55112e-17
726 1 156.169 99.207 -5.55112e-17
727 1 78.4291 140.908 -5.55112e-17
728 2 160.192 101.298 -5.55112e-17
729 1 149.276 218.922 -5.55112e-17
730 1 70.7026 176.256 -5.55112e-17
731 1 80.7454 38.5638 -5.55112e-17
732 1 112.901 47.0979 -5.55112e-17
733 1 177.302 69.1327 -5.55112e-17
734 1 65.068 48.7806 -5.55112e-17
735 1 165.878 44.0568 -5.55112e-17
736 2 179.228 84.6055 -5.55112e-17
737 1 81.9728 98.7674 -5.55112e-17
738 1 213.851 116.279 -5.55112e-17
739 1 204.337 169.1 -5.55112e-17
740 1 62.4506 133.046 -5.55112e-17
741 2 193.573 3.46968 -5.55112e-17
742 1 22.3366 100.521 -5.55112e-17
743 1 125.363 44.7957 -5.55112e-17
744 2 218.222 110.318 -5.55112e-17
745 1 94.8589 33.0284 -5.55112e-17
746 1 84.4176 183.968 -5.55112e-17
747 2 1.89222 81.4246 -5.55112e-17
748 1 169.057 55.8688 -5.55112e-17
749 1 15.793 140.209 -5.55112e-17
750 1 11.5596 156.137 -5.55112e-17
751 1 97.3725 64.1775 -5.55112e-17
752 1 159.505 182.709 -5.55112e-17
753 1 89.1027 183.86 -5.55112e-17
754 1 54.0521 22.4856 -5.55112e-17
755 1 121.836 75.4162 -5.55112e-17
756 2 165.492 36.7849 -5.55112e-17
757 1 21.6877 217.034 -5.55112e-17
758 1 14.9774 113.823 -5.55112e-17
759 1 145.511 159.778 -5.55112e-17
760 1 162.795 130.357 -5.55112e-17
761 1 67.717 12.4646 -5.55112e-17
762 1 214.763 39.0123 -5.55112e-17
763 1 24.3932 114.792 -5.55112e-17
764 2 120.138 168.368 -5.55112e-17
765 1 196.76 44.1564 -5.55112e-17
766 1 43.5165 58.5341 -5.55112e-17
767 1 211.234 200.179 -5.55112e-17
768 1 165.985 4.98012 -5.55112e-17
769 1 86.968 114.523 -5.55112e-17
770 2 22.4268 107.384 -5.55112e-17
771 1 9.56705 135.352 -5.55112e-17
772 1 107.254 116.052 -5.55112e-17
773 1 60.2318 169.291 -5.55112e-17
774 1 175.352 136.362 -5.55112e-17
775 1 147.174 211.939 -5.55112e-17
776 1 90.1304 6.41058 -5.55112e-17
777 1 176.569 44.8013 -5.55112e-17
778 1 11.2707 210.366 -5.55112e-17
779 1 201.53 129.992 -5.55112e-17
780 1 161.916 162.221 -5.55112e-17
781 1 6.69436 110.401 -5.55112e-17
782 1 208.373 35.6167 -5.55112e-17
783 1 119.415 197.44 -5.55112e-17
784 2 134.136 92.1405 -5.55112e-17
785 1 102.704 187.864 -5.55112e-17
786 1 64.1853 184.621 -5.55112e-17
787 1 9.42243 6.91326 -5.55112e-17
788 1 117.384 73.9788 -5.55112e-17
789 2 3.09019 98.5289 -5.55112e-17
790 1 88.8565 50.3767 -5.55112e-17
791 2 131.054 191.527 -5.55112e-17
792 2 34.6831 81.0978 -5.55112e-17
793 2 112.576 127.965 -5.55112e-17
794 1 46.9995 64.8983 -5.55112e-17
795 1 158.603 0.68589 -5.55112e-17
796 1 155.445 3.99199 -5.55112e-17
797 1 140.332 151.163 -5.55112e-17
798 2 46.7307 26.8903 -5.55112e-17
799 2 44.7474 98.1386 -5.55112e-17
800 2 119.371 36.6533 -5.55112e-17
801 1 184.467 69.243 -5.55112e-17
802 1 52.3839 64.9943 -5.55112e-17
803 1 163.581 151.012 -5.55112e-17
804 2 97.7367 151.798 -5.55112e-17
805 1 176.461 110.089 -5.55112e-17
806 1 86.155 161.953 -5.55112e-17
807 2 164.185 205.317 -5.55112e-17
808 1 172.09 73.5983 -5.55112e-17
809 2 159.317 30.6622 -5.55112e-17
810 1 109.187 35.5459 -5.55112e-17
811 1 205.303 51.5714 -5.55112e-17
812 1 208.621 6.79296 -5.55112e-17
813 2 66.5642 185.847 -5.55112e-17
814 1 81.4191 79.4896 -5.55112e-17
815 1 55.0711 204.391 -5.55112e-17
816 1 24.4321 47.9903 -5.55112e-17
817 1 214.147 130.368 -5.55112e-17
818 1 157.615 210.123 -5.55112e-17
819 1 100.179 161.943 -5.55112e-17
820 1 122.515 2.9553 -5.55112e-17
821 1 78.6066 155.167 -5.55112e-17
822 2 218.174 0.25735 -5.55112e-17
823 2 203.409 87.8197 -5.55112e-17
824 1 99.8638 84.9816 -5.55112e-17
825 1 29.7962 17.3867 -5.55112e-17
826 1 35.6525 124.533 -5.55112e-17
827 1 214.612 51.364 -5.55112e-17
828 1 54.063 206.788 -5.55112e-17
829 1 12.9691 52.1743 -5.55112e-17
830 1 11.2586 33.8692 -5.55112e-17
831 1 217.957 173.034 -5.55112e-17
832 1 213.565 53.77 -5.55112e-17
833 1 198.85 54.2316 -5.55112e-17
834 1 86.4104 206.801 -5.55112e-17
835 1 32.0495 188.441 -5.55112e-17
836 1 207.403 81.4996 -5.55112e-17
837 1 11.1726 97.3359 -5.55112e-17
838 1 5.90142 42.0495 -5.55112e-17
839 2 207.561 151.568 -5.55112e-17
840 1 85.3527 61.4377 -5.55112e-17
841 2 56.8109 31.3702 -5.55112e-17
842 1 216.706 10.2992 -5.55112e-17
843 2 185.844 178.08 -5.55112e-17
844 1 15.097 16.5805 -5.55112e-17
845 1 24.6104 188.596 -5.55112e-17
846 1 145.155 58.658 -5.55112e-17
847 1 207.9 214.81 -5.55112e-17
848 1 77.4531 72.4691 -5.55112e-17
849 1 162.727 120.778 -5.55112e-17
850 1 68.9108 178.321 -5.55112e-17
851 1 59.2508 47.6393 -5.55112e-17
852 1 82.8678 9.65886 -5.55112e-17
853 1 141.281 169.16 -5.55112e-17
854 1 40.8642 116.119 -5.55112e-17
855 1 146.316 94.8739 -5.55112e-17
856 1 118.255 160.058 -5.55112e-17