ITEM: TIMESTEP
0
ITEM: NUMBER OF ATOMS
7200
ITEM: BOX BOUNDS xy xz yz pp pp pp
0.0000000000000000e+00 2.1900000000000000e+02 0.0000000000000000e+00
0.0000000000000000e+00 2.1900000000000000e+02 0.0000000000000000e+00
-3.6499999999999999e-01 3.6499999999999999e-01 0.0000000000000000e+00
ITEM: ATOMS id type x y z
1 1 37.7654 76.7506 -5.55112e-17
2 1 208.22 86.6101 -5.55112e-17
3 1 11.3175 121.741 -5.55112e-17
4 1 22.5149 185.864 -5.55112e-17
5 1 158.982 152.561 -5.55112e-17
6 1 12.9307 165.76 -5.55112e-17
7 1 214.656 206.364 -5.55112e-17
8 2 73.2884 88.3158 -5.55112e-17
9 1 138.197 14.7017 -5.55112e-17
10 2 192.957 86.2887 -5.55112e-17
11 1 167.595 83.1777 -5.55112e-17
12 1 22.8134 128.413 -5.55112e-17
13 2 188.085 185.698 -5.55112e-17
14 1 190.745 51.3686 -5.55112e-17
15 1 11.8828 128.281 -5.55112e-17
16 2 164.995 175.119 -5.55112e-17
17 1 160.286 84.6227 -5.55112e-17
18 2 23.9583 115.934 -5.55112e-17
19 1 182.309 114.439 -5.55112e-17
20 1 13.6979 180.848 -5.55112e-17
21 1 29.8147 171.921 -5.55112e-17
22 2 79.1006 7.87386 -5.55112e-17
23 2 183.464 71.4079 -5.55112e-17
24 1 18.2774 165.364 -5.55112e-17
25 1 36.1771 92.1845 -5.55112e-17
26 2 21.4861 155.665 -5.55112e-17
27 1 188.352 210.207 -5.55112e-17
28 2 79.2889 191.203 -5.55112e-17
29 1 174.969 142.752 -5.55112e-17
30 1 117.075 140.522 -5.55112e-17
31 1 74.5151 148.486 -5.55112e-17
32 1 46.5777 61.8216 -5.55112e-17
33 1 78.9872 146.267 -5.55112e-17
34 1 153.773 61.804 -5.55112e-17
35 1 208.261 190.585 -5.55112e-17
36 1 58.5603 119.158 -5.55112e-17
37 2 218.626 51.5429 -5.55112e-17
38 1 29.4721 165.649 -5.55112e-17
39 1 198.169 65.6665 -5.55112e-17
40 1 38.317 116.214 -5.55112e-17
41 1 66.5922 124.324 -5.55112e-17
42 1 143.105 134.018 -5.55112e-17
43 1 184.6 74.3169 -5.55112e-17
44 1 177.699 146.193 -5.55112e-17
45 1 15.8255 141.19 -5.55112e-17
46 1 85.9741 216.787 -5.55112e-17
47 1 89.9738 71.538 -5.55112e-17
48 2 16.2946 100.469 -5.55112e-17
49 1 99.5419 194.275 -5.55112e-17
50 1 44.689 115.323 -5.55112e-17
51 1 217.614 30.8549 -5.55112e-17
52 1 121.106 44.5384 -5.55112e-17
53 1 210.122 134.703 -5.55112e-17
54 1 170.44 115.003 -5.55112e-17
55 1 181.852 88.4964 -5.55112e-17
56 1 180.581 151.149 -5.55112e-17
57 2 178.813 182.245 -5.55112e-17
58 1 5.71486 8.43989 -5.55112e-17
59 1 78.233 173.836 -5.55112e-17
60 2 121.898 210.329 -5.55112e-17
61 2 36.4897 101.639 -5.55112e-17
62 1 48.1311 91.2336 -5.55112e-17
63 1 44.1798 151.124 -5.55112e-17
64 1 8.01423 125.679 -5.55112e-17
65 1 168.724 196.196 -5.55112e-17
66 1 73.4886 211.575 -5.55112e-17
67 1 18.4816 173.366 -5.55112e-17
68 1 100.252 186.652 -5.55112e-17
69 1 109.97 161.55 -5.55112e-17
70 1 69.2482 127.371 -5.55112e-17
71 1 86.3094 28.6744 -5.55112e-17
72 1 1.85857 141.519 -5.55112e-17
73 1 89.8999 148.931 -5.55112e-17
74 1 209.732 16.6469 -5.55112e-17
75 2 16.4226 217.308 -5.55112e-17
76 1 127.893 39.5841 -5.55112e-17
77 1 170.495 34.8144 -5.55112e-17
78 1 78.9667 96.3806 -5.55112e-17
79 2 144.598 138.664 -5.55112e-17
80 1 179.531 80.1478 -5.55112e-17
81 1 148.838 96.7462 -5.55112e-17
82 1 23.913 7.75109 -5.55112e-17
83 2 81.0076 160.632 -5.55112e-17
84 1 183.769 50.1115 -5.55112e-17
85 1 88.6891 118.239 -5.55112e-17
86 1 117.767 138.034 -5.55112e-17
87 1 97.8161 131.446 -5.55112e-17
88 1 70.8064 121.195 -5.55112e-17
89 2 196.177 25.5364 -5.55112e-17
90 2 33.9455 44.7557 -5.55112e-17
91 1 126.182 195.894 -5.55112e-17
92 2 157.379 65.9957 -5.55112e-17
93 1 218.292 209.635 -5.55112e-17
94 2 116.747 55.6182 -5.55112e-17
95 1 177.1 90.2957 -5.55112e-17
96 1 130.248 181.376 -5.55112e-17
97 1 203.907 191.038 -5.55112e-17
98 1 0.110517 110.066 -5.55112e-17
99 1 218.298 4.91016 -5.55112e-17
100 1 130.176 30.4482 -5.55112e-17
101 1 48.2616 10.8601 -5.55112e-17
102 1 94.7137 138.505 -5.55112e-17
103 1 113.08 164.092 -5.55112e-17
104 1 40.4377 92.7298 -5.55112e-17
105 1 65.243 182.081 -5.55112e-17
106 1 118.552 91.7979 -5.55112e-17
107 2 117.047 15.6455 -5.55112e-17
108 1 153.675 206.014 -5.55112e-17
109 1 22.6723 80.728 -5.55112e-17
110 1 185.793 196.068 -5.55112e-17
111 1 12.506 212.926 -5.55112e-17
112 1 116.526 126.604 -5.55112e-17
113 1 93.94 43.9018 -5.55112e-17
114 1 60.6875 39.7074 -5.55112e-17
115 1 8.9158 81.7256 -5.55112e-17
116 2 58.9982 79.6422 -5.55112e-17
117 1 206.201 130.708 -5.55112e-17
118 1 121.274 101.676 -5.55112e-17
119 2 149.728 177.256 -5.55112e-17
120 1 27.9198 180.56 -5.55112e-17
121 1 45.1571 146.397 -5.55112e-17
122 1 37.9099 136.576 -5.55112e-17
123 1 143.857 18.5082 -5.55112e-17
124 1 157.485 125.436 -5.55112e-17
125 1 129.286 147.071 -5.55112e-17
126 1 34.2521 166.1 -5.55112e-17
127 1 35.7744 0.159959 -5.55112e-17
128 1 170.987 4.05837 -5.55112e-17
129 1 51.9111 171.946 -5.55112e-17
130 1 215.993 66.9695 -5.55112e-17
131 1 6.48148 106.104 -5.55112e-17
132 2 36.8277 18.7539 -5.55112e-17
133 1 66.1201 90.7215 -5.55112e-17
134 1 130.774 188.238 -5.55112e-17
135 1 149.076 94.16 -5.55112e-17
136 1 96.1265 112.069 -5.55112e-17
137 1 88.035 2.44454 -5.55112e-17
138 1 86.8658 56.1619 -5.55112e-17
139 1 113.755 203.915 -5.55112e-17
140 2 211.161 197.157 -5.55112e-17
141 1 66.4963 69.3303 -5.55112e-17
142 2 2.89534 163.4 -5.55112e-17
143 1 118.301 121.4 -5.55112e-17
144 2 47.4481 106.134 -5.55112e-17
145 1 182.046 73.738 -5.55112e-17
146 1 72.1375 169.351 -5.55112e-17
147 1 130.057 4.8165 -5.55112e-17
148 1 53.0313 61.2365 -5.55112e-17
149 1 205.207 111.804 -5.55112e-17
150 1 8.65118 31.1447 -5.55112e-17
151 1 48.2592 145.267 -5.55112e-17
152 1 150.605 164.824 -5.55112e-17
153 2 32.1384 200.966 -5.55112e-17
154 1 127.639 66.3394 -5.55112e-17
155 1 209.594 168.796 -5.55112e-17
156 2 5.21424 125.24 -5.55112e-17
157 1 43.46 89.4716 -5.55112e-17
158 1 20.5594 66.6982 -5.55112e-17
159 1 144.593 193.917 -5.55112e-17
160 1 56.7461 62.3406 -5.55112e-17
161 1 47.5634 215.785 -5.55112e-17
162 1 114.882 101.892 -5.55112e-17
163 1 62.5019 27.5415 -5.55112e-17
164 1 110.831 39.3661 -5.55112e-17
165 1 23.026 206.323 -5.55112e-17
166 2 152.973 89.2525 -5.55112e-17
167 1 85.2322 174.588 -5.55112e-17
168 1 35.5433 178.015 -5.55112e-17
169 1 47.9464 73.5516 -5.55112e-17
170 1 70.7314 79.5618 -5.55112e-17
171 1 0.386346 125.608 -5.55112e-17
172 1 153.876 81.1735 -5.55112e-17
173 1 23.5798 71.0619 -5.55112e-17
174 1 40.9697 98.8023 -5.55112e-17
175 2 40.2797 96.0252 -5.55112e-17
176 1 153.014 20.5823 -5.55112e-17
177 2 164.681 204.671 -5.55112e-17
178 1 22.65 208.664 -5.55112e-17
179 1 179.188 139.46 -5.55112e-17
180 1 161.647 189.083 -5.55112e-17
181 1 85.0496 157.279 -5.55112e-17
182 2 20.1315 40.4604 -5.55112e-17
183 1 216.329 171.594 -5.55112e-17
184 1 136.798 155.495 -5.55112e-17
185 2 144.758 47.0489 -5.55112e-17
186 2 157.897 62.748 -5.55112e-17
187 1 94.8459 92.9698 -5.55112e-17
188 1 159.91 157.052 -5.55112e-17
189 1 23.547 102.232 -5.55112e-17
190 2 147.102 4.45359 -5.55112e-17
191 1 25.3229 80.5564 -5.55112e-17
192 2 65.2594 100.563 -5.55112e-17
193 2 25.7037 182.267 -5.55112e-17
194 1 20.8584 133.334 -5.55112e-17
195 1 146.175 107.906 -5.55112e-17
196 1 83.4938 200.066 -5.55112e-17
197 1 131.763 139.823 -5.55112e-17
198 2 9.1629 171.791 -5.55112e-17
199 1 110.478 1.13764 -5.55112e-17
200 1 53.654 33.3253 -5.55112e-17
201 2 171.646 32.1628 -5.55112e-17
202 1 156.202 101.637 -5.55112e-17
203 1 134.841 78.3878 -5.55112e-17
204 1 119.763 217.146 -5.55112e-17
205 2 15.4996 166.671 -5.55112e-17
206 1 98.8355 15.2512 -5.55112e-17
207 1 101.728 174.017 -5.55112e-17
208 1 4.47181 10.7924 -5.55112e-17
209 1 117.274 116.783 -5.55112e-17
210 1 138.791 130.982 -5.55112e-17
211 2 210.027 61.4665 -5.55112e-17
212 1 139.034 74.8186 -5.55112e-17
213 1 36.6035 46.4455 -5.55112e-17
214 1 199.281 30.1356 -5.55112e-17
215 1 54.1197 213.401 -5.55112e-17
216 1 156.199 50.8086 -5.55112e-17
217 1 55.4532 7.92263 -5.55112e-17
218 2 116.314 205.129 -5.55112e-17
219 1 41.6418 65.0428 -5.55112e-17
220 2 188.094 81.5919 -5.55112e-17
221 1 217.599 64.6404 -5.55112e-17
222 1 4.54955 25.1098 -5.55112e-17
223 1 86.1456 50.8052 -5.55112e-17
224 2 184.779 31.5092 -5.55112e-17
225 1 57.0462 175.9 -5.55112e-17
226 1 166.349 80.8107 -5.55112e-17
227 2 30.7281 21.2202 -5.55112e-17
228 1 77.689 198.698 -5.55112e-17
229 1 138.685 127.083 -5.55112e-17
230 1 163.864 164.502 -5.55112e-17
231 1 119.794 116.234 -5.55112e-17
232 1 140.768 55.5223 -5.55112e-17
233 1 133.753 51.6473 -5.55112e-17
234 1 209.505 33.1955 -5.55112e-17
235 1 48.7734 131.689 -5.55112e-17
236 1 180.907 102.235 -5.55112e-17
237 1 73.1833 69.5071 -5.55112e-17
238 1 54.68 115.426 -5.55112e-17
239 2 186.202 134.601 -5.55112e-17
240 1 139.273 62.8762 -5.55112e-17
241 2 35.8491 114.444 -5.55112e-17
242 2 104.274 20.3394 -5.55112e-17
243 2 5.07212 28.3715 -5.55112e-17
244 1 166.054 37.3169 -5.55112e-17
245 1 42.6166 179.444 -5.55112e-17
246 1 56.6731 12.5418 -5.55112e-17
247 1 190.354 121.619 -5.55112e-17
248 1 87.1561 156.406 -5.55112e-17
249 1 212.436 8.23348 -5.55112e-17
250 2 53.7071 5.3168 -5.55112e-17
251 1 126.827 191.319 -5.55112e-17
252 1 141.001 191.177 -5.55112e-17
253 1 81.9214 141.742 -5.55112e-17
254 2 68.5047 186.542 -5.55112e-17
255 1 61.884 48.5006 -5.55112e-17
256 1 152.101 181.855 -5.55112e-17
257 1 150.127 89.5516 -5.55112e-17
258 2 15.9565 196.186 -5.55112e-17
259 1 216.368 185.651 -5.55112e-17
260 1 25.5288 107.427 -5.55112e-17
261 1 110.022 140.216 -5.55112e-17
262 1 162.565 70.1997 -5.55112e-17
263 1 38.532 211.253 -5.55112e-17
264 1 57.5813 187.074 -5.55112e-17
265 1 178.128 54.5916 -5.55112e-17
266 1 165.34 101.641 -5.55112e-17
267 1 172.998 164.026 -5.55112e-17
268 1 90.1089 207.985 -5.55112e-17
269 1 122.46 215.304 -5.55112e-17
270 1 106.906 41.6011 -5.55112e-17
271 1 208.681 50.0618 -5.55112e-17
272 1 157.749 160.838 -5.55112e-17
273 1 170.586 93.0147 -5.55112e-17
274 2 177.784 111.119 -5.55112e-17
275 1 159.131 130.529 -5.55112e-17
276 2 174.892 55.3361 -5.55112e-17
277 2 170.445 188.622 -5.55112e-17
278 1 158.027 186.227 -5.55112e-17
279 2 200.145 37.9751 -5.55112e-17
280 1 111.491 10.6605 -5.55112e-17
281 1 70.3543 25.9733 -5.55112e-17
282 1 217.34 37.6753 -5.55112e-17
283 1 5.62734 15.0768 -5.55112e-17
284 1 107.356 141.03 -5.55112e-17
285 1 16.5739 190.646 -5.55112e-17
286 2 140.762 46.9683 -5.55112e-17
287 1 94.093 155.615 -5.55112e-17
288 1 56.832 214.402 -5.55112e-17
289 1 215.943 178.764 -5.55112e-17
290 1 118.085 152.04 -5.55112e-17
291 1 137.004 72.8208 -5.55112e-17
292 2 133.962 159.581 -5.55112e-17
293 2 5.58982 144.592 -5.55112e-17
294 1 126.907 124.691 -5.55112e-17
295 1 113.658 92.6414 -5.55112e-17
296 1 71.3387 200.882 -5.55112e-17
297 1 148.328 185.662 -5.55112e-17
298 1 107.306 196.468 -5.55112e-17
299 1 158.99 212.507 -5.55112e-17
300 2 161.073 48.1896 -5.55112e-17
301 1 162.575 52.9013 -5.55112e-17
302 1 71.0109 217.071 -5.55112e-17
303 2 157.885 44.2644 -5.55112e-17
304 2 97.4881 50.061 -5.55112e-17
305 1 21.6086 216.957 -5.55112e-17
306 1 89.7162 191.742 -5.55112e-17
307 1 78.0932 126.558 -5.55112e-17
308 1 127.996 91.1144 -5.55112e-17
309 2 106.496 173.27 -5.55112e-17
310 1 25.1743 179.494 -5.55112e-17
311 1 190.678 176.859 -5.55112e-17
312 1 214.692 90.8493 -5.55112e-17
313 2 214.635 213.171 -5.55112e-17
314 1 216.464 176.092 -5.55112e-17
315 1 134.432 138.976 -5.55112e-17
316 1 140.017 200.931 -5.55112e-17
317 1 147.471 89.6717 -5.55112e-17
318 1 100.546 188.76 -5.55112e-17
319 1 68.4438 210.677 -5.55112e-17
320 1 176.997 161.622 -5.55112e-17
321 1 63.091 210.872 -5.55112e-17
322 1 68.9602 96.5114 -5.55112e-17
323 1 61.7393 203.959 -5.55112e-17
324 1 161.524 123.124 -5.55112e-17
325 1 65.806 164.945 -5.55112e-17
326 1 51.1214 194.501 -5.55112e-17
327 2 157.542 85.7745 -5.55112e-17
328 1 67.5726 102.323 -5.55112e-17
329 2 55.3087 84.1982 -5.55112e-17
330 1 171.84 183.443 -5.55112e-17
331 1 108.068 214.558 -5.55112e-17
332 2 67.8815 72.2097 -5.55112e-17
333 1 181.875 171.301 -5.55112e-17
334 1 128.213 205.694 -5.55112e-17
335 1 150.861 112.817 -5.55112e-17
336 1 136.957 21.8956 -5.55112e-17
337 1 45.7111 45.4952 -5.55112e-17
338 1 147.934 40.327 -5.55112e-17
339 1 4.92208 18.9798 -5.55112e-17
340 1 66.4638 12.4134 -5.55112e-17
341 1 172.601 61.1104 -5.55112e-17
342 1 159.74 197.333 -5.55112e-17
343 1 88.4052 61.3795 -5.55112e-17
344 1 66.6588 61.2795 -5.55112e-17
345 1 77.207 66.749 -5.55112e-17
346 1 13.0797 2.34858 -5.55112e-17
347 1 101.809 73.3138 -5.55112e-17
348 1 141.76 6.34603 -5.55112e-17
349 1 151.305 97.0099 -5.55112e-17
350 2 25.9863 14.6296 -5.55112e-17
351 1 61.5357 115.338 -5.55112e-17
352 1 51.8623 169.449 -5.55112e-17
353 1 50.1105 92.9402 -5.55112e-17
354 1 156.692 71.2848 -5.55112e-17
355 1 205.938 194.594 -5.55112e-17
356 1 120.424 144.64 -5.55112e-17
357 1 170.96 159.352 -5.55112e-17
358 1 18.164 66.3553 -5.55112e-17
359 1 53.718 180.982 -5.55112e-17
360 1 1.93946 34.3034 -5.55112e-17
361 1 195.75 135.21 -5.55112e-17
362 1 42.2304 186.691 -5.55112e-17
363 1 65.1389 143.227 -5.55112e-17
364 2 187.796 26.6209 -5.55112e-17
365 1 62.9358 110.292 -5.55112e-17
366 1 123.537 127.068 -5.55112e-17
367 1 50.5935 119.623 -5.55112e-17
368 1 112.8 37.2621 -5.55112e-17
369 2 46.683 113.127 -5.55112e-17
370 1 212.082 15.6165 -5.55112e-17
371 1 113.21 156.915 -5.55112e-17
372 2 8.69783 90.2528 -5.55112e-17
373 2 137.655 191.295 -5.55112e-17
374 1 50.0506 45.4786 -5.55112e-17
375 1 109.896 197.625 -5.55112e-17
376 1 170.17 143.285 -5.55112e-17
377 1 147.982 157.258 -5.55112e-17
378 1 218.753 78.5488 -5.55112e-17
379 1 71.4659 176.145 -5.55112e-17
380 1 138.757 209.689 -5.55112e-17
381 1 156.366 3.57288 -5.55112e-17
382 1 134.926 122.305 -5.55112e-17
383 1 144.925 169.68 -5.55112e-17
384 1 19.2712 194.047 -5.55112e-17
385 1 88.3704 21.0522 -5.55112e-17
386 2 196.221 70.7523 -5.55112e-17
387 1 5.31564 198.866 -5.55112e-17
388 1 155.893 60.5666 -5.55112e-17
389 1 101.98 70.7126 -5.55112e-17
390 2 184.822 143.921 -5.55112e-17
391 2 213.801 10.7084 -5.55112e-17
392 1 179.281 163.687 -5.55112e-17
393 1 187.882 121.963 -5.55112e-17
394 1 96.2483 162.476 -5.55112e-17
395 1 68.1577 164.942 -5.55112e-17
396 1 105.577 218.582 -5.55112e-17
397 1 70.5354 90.1853 -5.55112e-17
398 1 112.453 34.7419 -5.55112e-17
399 1 218.941 189.664 -5.55112e-17
400 1 81.7253 52.9302 -5.55112e-17
401 1 10.3124 2.96613 -5.55112e-17
402 2 78.967 77.3872 -5.55112e-17
403 1 173.56 93.5746 -5.55112e-17
404 1 96.8665 16.5015 -5.55112e-17
405 1 173.463 159.301 -5.55112e-17
406 1 188.905 96.6352 -5.55112e-17
407 2 218.162 142.846 -5.55112e-17
408 1 102.636 0.385451 -5.55112e-17
409 1 53.8138 38.38 -5.55112e-17
410 1 46.4352 127.229 -5.55112e-17
411 1 159.607 170.234 -5.55112e-17
412 1 130.333 144.818 -5.55112e-17
413 1 76.0246 7.88235 -5.55112e-17
414 1 72.8494 150.864 -5.55112e-17
415 1 119.661 132.912 -5.55112e-17
416 1 3.29465 133.387 -5.55112e-17
417 1 197.191 172.049 -5.55112e-17
418 2 155.253 55.876 -5.55112e-17
419 1 92.0636 57.7737 -5.55112e-17
420 2 15.4824 65.3 -5.55112e-17
421 1 153.435 127.959 -5.55112e-17
422 1 18.4795 167.879 -5.55112e-17
423 2 198.425 94.5945 -5.55112e-17
424 1 131.183 72.2742 -5.55112e-17
425 1 199.646 81.0415 -5.55112e-17
426 1 195.442 170.15 -5.55112e-17
427 1 20.0423 32.0158 -5.55112e-17
428 1 127.161 214.327 -5.55112e-17
429 1 174.218 24.3114 -5.55112e-17
430 1 135.657 193.545 -5.55112e-17
431 1 190.417 205.932 -5.55112e-17
432 1 163.875 57.7832 -5.55112e-17
433 1 186.328 0.156036 -5.55112e-17
434 1 42.0001 168.93 -5.55112e-17
435 1 167.491 150.617 -5.55112e-17
436 1 22.5791 85.0605 -5.55112e-17
437 1 189.841 123.886 -5.55112e-17
438 2 122.112 66.8235 -5.55112e-17
439 1 84.0731 12.6098 -5.55112e-17
440 1 10.4609 150.48 -5.55112e-17
441 1 170.293 173.47 -5.55112e-17
442 1 196.723 19.63 -5.55112e-17
443 1 117.225 147.439 -5.55112e-17
444 1 25.5747 84.9193 -5.55112e-17
445 1 110.452 215.116 -5.55112e-17
446 1 118.899 99.8869 -5.55112e-17
447 1 194.719 15.1402 -5.55112e-17
448 1 182.397 25.1356 -5.55112e-17
449 1 87.5481 71.9782 -5.55112e-17
450 1 93.6308 74.9367 -5.55112e-17
451 1 139.928 69.8404 -5.55112e-17
452 1 130.228 151.39 -5.55112e-17
453 1 138.7 165.173 -5.55112e-17
454 1 191.891 161.452 -5.55112e-17
455 1 91.5921 144.696 -5.55112e-17
456 1 135.492 133.984 -5.55112e-17
457 1 10.626 62.7678 -5.55112e-17
458 1 67.3473 198.411 -5.55112e-17
459 1 35.9076 168.742 -5.55112e-17
460 1 4.9346 108.961 -5.55112e-17
461 1 84.9173 48.6575 -5.55112e-17
462 1 43.6525 189.013 -5.55112e-17
463 1 108.801 105.722 -5.55112e-17
464 1 173.072 110.897 -5.55112e-17
465 1 132.724 165.027 -5.55112e-17
466 1 186.91 29.5667 -5.55112e-17
467 1 179.568 115.498 -5.55112e-17
468 1 0.0366005 162.885 -5.55112e-17
469 1 207.302 27.3191 -5.55112e-17
470 1 4.4881 35.2859 -5.55112e-17
471 1 169.188 178.824 -5.55112e-17
472 1 117.651 123.928 -5.55112e-17
473 1 179.029 158.785 -5.55112e-17
474 1 175.118 36.7829 -5.55112e-17
475 1 114.504 154.855 -5.55112e-17
476 2 190.174 198.124 -5.55112e-17
477 1 9.02998 192.886 -5.55112e-17
478 1 144.014 107.209 -5.55112e-17
479 1 171.692 210.835 -5.55112e-17
480 1 103.714 120.471 -5.55112e-17
481 1 209.815 103.896 -5.55112e-17
482 1 95.0353 18.5749 -5.55112e-17
483 1 63.9203 177.937 -5.55112e-17
484 2 45.5358 139.009 -5.55112e-17
485 1 164.663 199.004 -5.55112e-17
486 1 87.4734 202.778 -5.55112e-17
487 1 65.3806 148.903 -5.55112e-17
488 1 67.6416 30.4325 -5.55112e-17
489 1 10.23 183.408 -5.55112e-17
490 1 192.292 29.4676 -5.55112e-17
491 1 164.699 78.7571 -5.55112e-17
492 1 169.133 121.242 -5.55112e-17
493 1 82.4243 195.203 -5.55112e-17
494 1 134.978 136.453 -5.55112e-17
495 1 29.2926 82.6134 -5.55112e-17
496 2 8.85697 130.698 -5.55112e-17
497 1 199.627 125.904 -5.55112e-17
498 1 160.729 154.543 -5.55112e-17
499 2 109.924 112.861 -5.55112e-17
500 1 43.2181 137.696 -5.55112e-17
501 2 207.917 171.604 -5.55112e-17
502 2 17.7357 177.206 -5.55112e-17
503 1 113.215 108.901 -5.55112e-17
504 1 150.968 127.538 -5.55112e-17
505 1 206.585 140.491 -5.55112e-17
506 1 27.3164 158.544 -5.55112e-17
507 1 163.31 172.614 -5.55112e-17
508 1 23.9424 82.9602 -5.55112e-17
509 2 64.5211 146.065 -5.55112e-17
510 2 169.782 137.753 -5.55112e-17
511 1 65.8269 14.7683 -5.55112e-17
512 2 76.0523 178.751 -5.55112e-17
513 1 115.732 30.9191 -5.55112e-17
514 1 14.147 97.913 -5.55112e-17
515 1 69.0262 36.1504 -5.55112e-17
516 1 9.94399 147.9 -5.55112e-17
517 1 183.537 206.811 -5.55112e-17
518 2 158.677 127.866 -5.55112e-17
519 1 69.0736 124.924 -5.55112e-17
520 2 195.218 83.643 -5.55112e-17
521 1 158.38 46.8763 -5.55112e-17
522 1 90.2891 171.418 -5.55112e-17
523 1 87.8461 194.012 -5.55112e-17
524 1 16.0797 53.7907 -5.55112e-17
525 1 148.325 17.4068 -5.55112e-17
526 1 8.48507 45.4952 -5.55112e-17
527 1 130.66 75.1526 -5.55112e-17
528 1 33.6944 22.6316 -5.55112e-17
529 1 39.3514 150.169 -5.55112e-17
530 1 106.974 203.718 -5.55112e-17
531 1 32.1016 120.841 -5.55112e-17
532 1 42.2378 153.882 -5.55112e-17
533 1 79.0675 57.2211 -5.55112e-17
534 1 169.394 22.7472 -5.55112e-17
535 1 89.8613 214.808 -5.55112e-17
536 1 143.055 59.7213 -5.55112e-17
537 1 43.2687 203.797 -5.55112e-17
538 1 25.2834 56.0325 -5.55112e-17
539 1 19.6554 34.6934 -5.55112e-17
540 1 39.0233 134.434 -5.55112e-17
541 1 12.2446 26.2651 -5.55112e-17
542 1 90.8388 189.697 -5.55112e-17
543 1 64.3403 115.151 -5.55112e-17
544 1 169.612 204.461 -5.55112e-17
545 1 190.238 103.324 -5.55112e-17
546 1 158.681 4.26508 -5.55112e-17
547 1 69.61 29.1763 -5.55112e-17
548 1 17.8496 0.659435 -5.55112e-17
549 1 136.293 52.8576 -5.55112e-17
550 2 172.367 88.2365 -5.55112e-17
551 2 145.577 208.423 -5.55112e-17
552 2 123.702 151.117 -5.55112e-17
553 1 67.8877 133.75 -5.55112e-17
554 1 88.8971 144.165 -5.55112e-17
555 2 109.337 93.7179 -5.55112e-17
556 1 162.428 18.2105 -5.55112e-17
557 1 95.0606 196.861 -5.55112e-17
558 1 192.9 170.674 -5.55112e-17
559 1 17.319 81.4332 -5.55112e-17
560 1 173.882 50.0571 -5.55112e-17
561 1 199.861 140.919 -5.55112e-17
562 1 81.5682 5.50781 -5.55112e-17
563 2 197.99 149.619 -5.55112e-17
564 1 168.613 190.85 -5.55112e-17
565 1 158.615 91.8252 -5.55112e-17
566 1 129.774 37.5962 -5.55112e-17
567 1 118.463 31.4037 -5.55112e-17
568 1 197.412 60.0173 -5.55112e-17
569 1 81.8272 186.268 -5.55112e-17
570 1 187.698 84.7757 -5.55112e-17
571 1 112.207 111.098 -5.55112e-17
572 1 191.654 110.356 -5.55112e-17
573 1 119.196 33.9384 -5.55112e-17
574 1 126.699 115.99 -5.55112e-17
575 1 76.031 19.1436 -5.55112e-17
576 1 114.01 127.134 -5.55112e-17
577 1 84.8977 72.7675 -5.55112e-17
578 1 138.22 198.502 -5.55112e-17
579 1 97.7293 208.322 -5.55112e-17
580 1 6.36506 61.5559 -5.55112e-17
581 1 22.7601 152.926 -5.55112e-17
582 1 18.7338 205.668 -5.55112e-17
583 1 93.7033 217.104 -5.55112e-17
584 2 30.6635 57.2944 -5.55112e-17
585 1 95.7012 70.0046 -5.55112e-17
586 1 145.477 58.542 -5.55112e-17
587 1 115.097 162.4 -5.55112e-17
588 1 15.8759 187.963 -5.55112e-17
589 1 181.845 36.0543 -5.55112e-17
590 1 73.9801 216.735 -5.55112e-17
591 1 54.4016 183.744 -5.55112e-17
592 1 149.075 91.6505 -5.55112e-17
593 1 116.65 43.0091 -5.55112e-17
594 1 146.772 95.2256 -5.55112e-17
595 1 39.0693 143.371 -5.55112e-17
596 1 137.205 3.97029 -5.55112e-17
597 2 86.042 106.642 -5.55112e-17
598 1 56.4453 143.045 -5.55112e-17
599 1 213.318 193.206 -5.55112e-17
600 1 143.195 207.09 -5.55112e-17
601 1 22.6996 140.328 -5.55112e-17
602 1 9.24101 127.87 -5.55112e-17
603 1 124.006 141.441 -5.55112e-17
604 1 201.871 186.095 -5.55112e-17
605 2 37.739 203.66 -5.55112e-17
606 1 113.145 45.9064 -5.55112e-17
607 2 209.915 204.621 -5.55112e-17
608 1 12.0562 102.989 -5.55112e-17
609 1 1.92134 150.984 -5.55112e-17
610 1 78.8583 80.4299 -5.55112e-17
611 1 40.4251 178.502 -5.55112e-17
612 1 1.18403 58.5685 -5.55112e-17
613 1 37.395 68.1351 -5.55112e-17
614 2 43.3565 200.721 -5.55112e-17
615 1 107.597 131.708 -5.55112e-17
616 1 53.7689 103.922 -5.55112e-17
617 1 21.0113 21.4507 -5.55112e-17
618 1 20.6432 165.983 -5.55112e-17
619 1 72.3027 39.7867 -5.55112e-17
620 1 145.897 75.8151 -5.55112e-17
621 1 142.908 66.7675 -5.55112e-17
622 1 181.677 30.7267 -5.55112e-17
623 1 0.525841 63.3926 -5.55112e-17
624 1 181.981 199.283 -5.55112e-17
625 1 41.0773 144.891 -5.55112e-17
626 1 148.837 215.31 -5.55112e-17
627 1 193.01 151.559 -5.55112e-17
628 1 199.692 14.968 -5.55112e-17
629 1 104.67 141.561 -5.55112e-17
630 2 106.866 60.6408 -5.55112e-17
631 1 192.748 207.936 -5.55112e-17
632 1 27.1478 35.2226 -5.55112e-17
633 1 183.993 169.89 -5.55112e-17
634 1 131.228 86.6439 -5.55112e-17
635 1 204.841 96.1286 -5.55112e-17
636 1 119.397 21.0415 -5.55112e-17
637 1 217.011 83.8261 -5.55112e-17
638 1 3.08653 166.15 -5.55112e-17
639 2 126.889 37.1505 -5.55112e-17
640 1 184.223 88.098 -5.55112e-17
641 1 127.198 198.345 -5.55112e-17
642 1 178.105 36.9893 -5.55112e-17
643 2 27.8956 150.874 -5.55112e-17
644 1 176.884 46.9882 -5.55112e-17
645 1 193.123 69.6465 -5.55112e-17
646 2 76.9148 171.154 -5.55112e-17
647 1 98.6616 210.606 -5.55112e-17
648 1 182.451 59.142 -5.55112e-17
649 2 168.397 4.68289 -5.55112e-17
650 1 110.321 36.6812 -5.55112e-17
651 1 44.1513 54.3324 -5.55112e-17
652 1 149.873 152.171 -5.55112e-17
653 1 148.185 105.508 -5.55112e-17
654 1 26.6432 61.0458 -5.55112e-17
655 2 143.814 62.425 -5.55112e-17
656 1 82.9473 22.3282 -5.55112e-17
657 2 148.419 87.2546 -5.55112e-17
658 1 109.107 127.723 -5.55112e-17
659 2 155.456 48.2178 -5.55112e-17
660 1 156.396 0.653557 -5.55112e-17
661 1 202.996 147.309 -5.55112e-17
662 1 166.782 200.269 -5.55112e-17
663 1 118.535 52.4255 -5.55112e-17
664 1 100.798 117.123 -5.55112e-17
665 1 69.4621 183.854 -5.55112e-17
666 2 98.2874 101.294 -5.55112e-17
667 1 91.9733 14.2677 -5.55112e-17
668 2 160.827 74.7246 -5.55112e-17
669 1 55.2947 50.2662 -5.55112e-17
670 1 15.7396 62.7477 -5.55112e-17
671 2 134.71 215.331 -5.55112e-17
672 1 186.806 70.159 -5.55112e-17
673 1 136.401 157.991 -5.55112e-17
674 1 82.7334 165.193 -5.55112e-17
675 1 214.227 198.302 -5.55112e-17
676 1 148.347 207.326 -5.55112e-17
677 1 13.9451 171.295 -5.55112e-17
678 1 92.9774 31.92 -5.55112e-17
679 2 83.7036 178.561 -5.55112e-17
680 1 54.1056 119.767 -5.55112e-17
681 2 35.2583 202.133 -5.55112e-17
682 1 89.271 66.9027 -5.55112e-17
683 1 71.8532 48.4315 -5.55112e-17
684 1 170.133 9.32456 -5.55112e-17
685 1 14.4975 110.06 -5.55112e-17
686 1 15.381 19.9449 -5.55112e-17
687 1 99.0888 147.585 -5.55112e-17
688 1 207.961 210.035 -5.55112e-17
689 2 56.5386 65.2164 -5.55112e-17
690 1 100.806 196.345 -5.55112e-17
691 1 151.763 28.9144 -5.55112e-17
692 1 144.382 94.1894 -5.55112e-17
693 1 51.402 159.621 -5.55112e-17
694 1 38.7077 127.886 -5.55112e-17
695 1 16.9526 201.152 -5.55112e-17
696 1 163.296 154.218 -5.55112e-17
697 1 153.89 97.1553 -5.55112e-17
698 1 213.024 78.8323 -5.55112e-17
699 1 173.014 42.9719 -5.55112e-17
700 1 202.256 152.778 -5.55112e-17
701 1 41.7116 27.3076 -5.55112e-17
702 1 134.7 38.7685 -5.55112e-17
703 2 80.6001 45.975 -5.55112e-17
704 1 80.8983 217.525 -5.55112e-17
705 2 173.09 73.1105 -5.55112e-17
706 1 124.716 118.472 -5.55112e-17
707 1 105.752 145.516 -5.55112e-17
708 1 28.272 194.898 -5.55112e-17
709 1 43.2856 43.0944 -5.55112e-17
710 1 166.34 192.053 -5.55112e-17
711 1 7.72543 157.446 -5.55112e-17
712 1 136.148 203.036 -5.55112e-17
713 1 95.2799 130.747 -5.55112e-17
714 1 35.9016 73.1121 -5.55112e-17
715 1 106.754 10.0322 -5.55112e-17
716 1 207.245 32.4693 -5.55112e-17
717 1 184.406 146.933 -5.55112e-17
718 1 192.085 107.589 -5.55112e-17
719 2 7.09415 71.7601 -5.55112e-17
720 1 120.807 82.2969 -5.55112e-17
721 1 137.196 116.8 -5.55112e-17
722 1 49.2889 77.9322 -5.55112e-17
723 2 217.618 81.2661 -5.55112e-17
724 1 174.061 134.523 -5.55112e-17
725 1 142.493 181.061 -5.55112e-17
726 1 41.3676 44.2117 -5.55112e-17
727 1 121.44 213.038 -5.55112e-17
728 2 43.2608 212.73 -5.55112e-17
729 1 73.3035 114.254 -5.55112e-17
730 1 179.035 136.967 -5.55112e-17
731 1 138.971 108.537 -5.55112e-17
732 1 121.446 125.329 -5.55112e-17
733 1 28.278 40.8031 -5.55112e-17
734 1 125.619 27.9101 -5.55112e-17
735 1 210.627 6.11473 -5.55112e-17
736 2 85.9402 164.388 -5.55112e-17
737 1 64.3997 184.354 -5.55112e-17
738 1 167.675 153.374 -5.55112e-17
739 1 157.259 210.743 -5.55112e-17
740 1 1.99511 85.6502 -5.55112e-17
741 2 86.9389 25.7677 -5.55112e-17
742 1 22.9014 167.082 -5.55112e-17
743 1 50.202 4.12247 -5.55112e-17
744 2 129.518 64.0809 -5.55112e-17
745 1 117.384 180.6 -5.55112e-17
746 1 88.3502 141.769 -5.55112e-17
747 2 70.5494 76.6154 -5.55112e-17
748 1 133.195 193.176 -5.55112e-17
749 1 112.581 118.076 -5.55112e-17
750 1 66.6786 155.129 -5.55112e-17
751 1 164.517 24.5898 -5.55112e-17
752 1 98.4836 163.515 -5.55112e-17
753 1 81.6693 57.821 -5.55112e-17
754 1 2.73939 194.004 -5.55112e-17
755 1 198.322 178.949 -5.55112e-17
756 2 8.18789 197.662 -5.55112e-17
757 1 0.217898 145.732 -5.55112e-17
758 1 140.621 166.541 -5.55112e-17
759 1 176.017 199.291 -5.55112e-17
760 1 193.191 41.9823 -5.55112e-17
761 1 101.576 55.1292 -5.55112e-17
762 1 61.3868 17.2267 -5.55112e-17
763 1 22.895 73.4875 -5.55112e-17
764 2 34.0776 193.073 -5.55112e-17
765 1 157.063 177.449 -5.55112e-17
766 1 49.8398 19.6596 -5.55112e-17
767 1 70.7627 138.406 -5.55112e-17
768 1 132.178 108.129 -5.55112e-17
769 1 167.357 139.669 -5.55112e-17
770 2 70.7025 18.5022 -5.55112e-17
771 1 43.2261 107.864 -5.55112e-17
772 1 32.2415 104.841 -5.55112e-17
773 1 48.0693 17.9555 -5.55112e-17
774 1 116.572 149.878 -5.55112e-17
775 1 24.2119 126.109 -5.55112e-17
776 1 137.596 86.9611 -5.55112e-17
777 1 162.429 120.936 -5.55112e-17
778 1 35.1372 104.628 -5.55112e-17
779 1 92.2828 169.201 -5.55112e-17
780 1 207.652 123.337 -5.55112e-17
781 1 1.58323 80.9095 -5.55112e-17
782 1 26.4348 117.311 -5.55112e-17
783 1 206.041 107.437 -5.55112e-17
784 2 190.026 37.9052 -5.55112e-17
785 1 103.755 217.112 -5.55112e-17
786 1 104.362 134.316 -5.55112e-17
787 1 148.985 53.6544 -5.55112e-17
788 1 213.66 55.6021 -5.55112e-17
789 2 191.058 32.1243 -5.55112e-17
790 1 178.744 134.52 -5.55112e-17
791 2 45.5328 206.014 -5.55112e-17
792 2 68.7074 81.7389 -5.55112e-17
793 2 111.829 149.288 -5.55112e-17
794 1 73.763 8.76086 -5.55112e-17
795 1 25.4562 160.329 -5.55112e-17
796 1 54.6533 201.37 -5.55112e-17
797 1 63.7585 189.513 -5.55112e-17
798 2 84.4201 121.081 -5.55112e-17
799 2 211.675 35.9884 -5.55112e-17
800 2 179.128 15.1941 -5.55112e-17
801 1 1.04866 66.1904 -5.55112e-17
802 1 141.065 58.4997 -5.55112e-17
803 1 85.45 209.149 -5.55112e-17
804 2 183.985 28.2399 -5.55112e-17
805 1 142.566 151.646 -5.55112e-17
806 1 210.865 171.49 -5.55112e-17
807 2 204.491 13.1319 -5.55112e-17
808 1 89.4682 195.973 -5.55112e-17
809 2 40.8954 174.362 -5.55112e-17
810 1 110.889 82.9014 -5.55112e-17
811 1 65.913 210.873 -5.55112e-17
812 1 156.336 196.388 -5.55112e-17
813 2 189.257 116.606 -5.55112e-17
814 1 68.8332 94.0489 -5.55112e-17
815 1 178.408 61.3952 -5.55112e-17
816 1 133.122 46.4888 -5.55112e-17
817 1 18.4421 83.7046 -5.55112e-17
818 1 203.445 76.3073 -5.55112e-17
819 1 64.5985 175.164 -5.55112e-17
820 1 47.0568 186.006 -5.55112e-17
821 1 57.8263 54.1985 -5.55112e-17
822 2 118.819 62.8154 -5.55112e-17
823 2 164.661 88.0628 -5.55112e-17
824 1 56.2982 40.126 -5.55112e-17
825 1 48.6767 206.595 -5.55112e-17
826 1 131.329 84.0802 -5.55112e-17
827 1 43.0332 91.9073 -5.55112e-17
828 1 190.436 208.577 -5.55112e-17
829 1 178.041 85.044 -5.55112e-17
830 1 21.1868 114.601 -5.55112e-17
831 1 12.1164 113.93 -5.55112e-17
832 1 138.823 111.07 -5.55112e-17
833 1 98.321 69.2201 -5.55112e-17
834 1 5.82308 90.6261 -5.55112e-17
835 1 201.895 199.166 -5.55112e-17
836 1 66.0418 93.1814 -5.55112e-17
837 1 111.044 99.4595 -5.55112e-17
838 1 60.0664 82.6035 -5.55112e-17
839 2 195.898 37.0496 -5.55112e-17
840 1 152.803 202.03 -5.55112e-17
841 2 108.985 175.512 -5.55112e-17
842 1 47.266 40.7941 -5.55112e-17
843 2 83.5329 41.0742 -5.55112e-17
844 1 49.0698 160.417 -5.55112e-17
845 1 57.8132 26.936 -5.55112e-17
846 1 41.9117 80.4778 -5.55112e-17
847 1 115.463 82.5068 -5.55112e-17
848 1 138.099 179.78 -5.55112e-17
849 1 144.984 196.425 -5.55112e-17
850 1 107.312 46.2248 -5.55112e-17
851 1 204.44 138.646 -5.55112e-17
852 1 91.9081 176.045 -5.55112e-17
853 1 176.74 171 -5.55112e-17
854 1 138.151 96.6779 -5.55112e-17
855 1 15.637 51.1944 -5.55112e-17
856 1 174.515 137.461 -5.55112e-17