ITEM: TIMESTEP
0
ITEM: NUMBER OF ATOMS
7200
ITEM: BOX BOUNDS xy xz yz pp pp pp
0.0000000000000000e+00 2.1900000000000000e+02 0.0000000000000000e+00
0.0000000000000000e+00 2.1900000000000000e+02 0.0000000000000000e+00
-3.6499999999999999e-01 3.6499999999999999e-01 0.0000000000000000e+00
ITEM: ATOMS id type x y z
1 1 87.1095 71.915 -5.55112e-17
2 1 4.61408 192.823 -5.55112e-17
3 1 37.1504 89.7989 -5.55112e-17
4 1 211.643 125.965 -5.55112e-17
5 1 162.439 37.8808 -5.55112e-17
6 1 190.709 188.766 -5.55112e-17
7 1 187.073 52.4978 -5.55112e-17
8 2 137.318 215.506 -5.55112e-17
9 1 30.1089 162.3 -5.55112e-17
10 2 122.119 81.0502 -5.55112e-17
11 1 11.1468 48.3911 -5.55112e-17
12 1 41.5144 11.4256 -5.55112e-17
13 2 118.771 80.8202 -5.55112e-17
14 1 187.432 209.151 -5.55112e-17
15 1 120.543 161.006 -5.55112e-17
16 2 150.826 169.265 -5.55112e-17
17 1 63.0973 203.087 -5.55112e-17
18 2 42.4372 57.1436 -5.55112e-17
19 1 122.633 38.3079 -5.55112e-17
20 1 92.8304 98.9604 -5.55112e-17
21 1 207.962 89.9878 -5.55112e-17
22 2 117.357 109.836 -5.55112e-17
23 2 204.249 32.2678 -5.55112e-17
24 1 208.388 3.96012 -5.55112e-17
25 1 203.515 121.321 -5.55112e-17
26 2 103.99 34.2995 -5.55112e-17
27 1 155.458 78.36 -5.55112e-17
28 2 159.035 217.81 -5.55112e-17
29 1 27.0505 192.316 -5.55112e-17
30 1 39.7872 4.55929 -5.55112e-17
31 1 65.0982 183.347 -5.55112e-17
32 1 100.852 75.0798 -5.55112e-17
33 1 59.726 89.128 -5.55112e-17
34 1 174.858 88.2886 -5.55112e-17
35 1 149.482 126.821 -5.55112e-17
36 1 52.2469 116.097 -5.55112e-17
37 2 158.734 19.9129 -5.55112e-17
38 1 36.5033 175.102 -5.55112e-17
39 1 112.191 170.968 -5.55112e-17
40 1 184.761 68.1768 -5.55112e-17
41 1 22.2332 146.103 -5.55112e-17
42 1 169.995 207.284 -5.55112e-17
43 1 82.4865 142.897 -5.55112e-17
44 1 211.38 115.873 -5.55112e-17
45 1 54.1304 186.715 -5.55112e-17
46 1 198.675 57.2052 -5.55112e-17
47 1 167.874 53.8215 -5.55112e-17
48 2 96.3343 40.5993 -5.55112e-17
49 1 174.01 36.3962 -5.55112e-17
50 1 209.326 92.0852 -5.55112e-17
51 1 27.4238 41.3581 -5.55112e-17
52 1 103.254 66.3882 -5.55112e-17
53 1 213.617 22.6339 -5.55112e-17
54 1 135.345 18.7765 -5.55112e-17
55 1 98.1766 138.005 -5.55112e-17
56 1 157.523 103.831 -5.55112e-17
57 2 15.0111 131.255 -5.55112e-17
58 1 142.27 33.253 -5.55112e-17
59 1 135.256 68.3063 -5.55112e-17
60 2 33.6111 1.5592 -5.55112e-17
61 2 69.4857 197.812 -5.55112e-17
62 1 70.3197 190.74 -5.55112e-17
63 1 92.5602 54.3158 -5.55112e-17
64 1 191.271 205.367 -5.55112e-17
65 1 24.1788 144.213 -5.55112e-17
66 1 197.717 18.4831 -5.55112e-17
67 1 145.597 72.0547 -5.55112e-17
68 1 25.303 98.1689 -5.55112e-17
69 1 96.9131 7.27955 -5.55112e-17
70 1 82.5242 20.8469 -5.55112e-17
71 1 131.246 42.4246 -5.55112e-17
72 1 39.307 91.3772 -5.55112e-17
73 1 154.06 36.6275 -5.55112e-17
74 1 34.476 46.8854 -5.55112e-17
75 2 86.0004 44.936 -5.55112e-17
76 1 61.5478 20.7892 -5.55112e-17
77 1 60.3282 142.95 -5.55112e-17
78 1 180.827 6.71315 -5.55112e-17
79 2 160.779 24.6779 -5.55112e-17
80 1 197.332 96.1153 -5.55112e-17
81 1 181.777 76.5028 -5.55112e-17
82 1 199.745 49.5413 -5.55112e-17
83 2 171.551 5.43496 -5.55112e-17
84 1 114.339 110.776 -5.55112e-17
85 1 216.68 191.187 -5.55112e-17
86 1 64.2815 185.772 -5.55112e-17
87 1 96.1059 139.465 -5.55112e-17
88 1 52.224 70.0977 -5.55112e-17
89 2 141.212 77.3186 -5.55112e-17
90 2 27.1884 6.67333 -5.55112e-17
91 1 72.9231 189.962 -5.55112e-17
92 2 11.3864 39.9817 -5.55112e-17
93 1 55.1257 90.464 -5.55112e-17
94 2 149.249 18.9979 -5.55112e-17
95 1 29.4095 89.0309 -5.55112e-17
96 1 153.796 80.4715 -5.55112e-17
97 1 52.6984 100.229 -5.55112e-17
98 1 87.9669 188.973 -5.55112e-17
99 1 41.4254 26.1975 -5.55112e-17
100 1 113.917 190.169 -5.55112e-17
101 1 29.4278 191.815 -5.55112e-17
102 1 157.98 207.614 -5.55112e-17
103 1 103.377 64.1386 -5.55112e-17
104 1 56.7564 71.9867 -5.55112e-17
105 1 122.104 153.387 -5.55112e-17
106 1 174.699 68.0022 -5.55112e-17
107 2 100.433 97.4298 -5.55112e-17
108 1 141.573 10.466 -5.55112e-17
109 1 54.9343 48.8288 -5.55112e-17
110 1 44.0702 144.533 -5.55112e-17
111 1 196.775 213.622 -5.55112e-17
112 1 152.08 100.138 -5.55112e-17
113 1 70.1881 11.2549 -5.55112e-17
114 1 40.8579 156.973 -5.55112e-17
115 1 184.123 24.7387 -5.55112e-17
116 2 93.2173 135.905 -5.55112e-17
117 1 40.1614 189.626 -5.55112e-17
118 1 127.698 53.952 -5.55112e-17
119 2 138.457 196.23 -5.55112e-17
120 1 143.21 102.983 -5.55112e-17
121 1 64.4029 87.9771 -5.55112e-17
122 1 46.2416 37.8151 -5.55112e-17
123 1 125.102 160.332 -5.55112e-17
124 1 212.484 144.217 -5.55112e-17
125 1 185.69 197.28 -5.55112e-17
126 1 152.496 91.5066 -5.55112e-17
127 1 15.1408 84.7424 -5.55112e-17
128 1 155.703 206.445 -5.55112e-17
129 1 135.111 213.726 -5.55112e-17
130 1 94.0951 87.1278 -5.55112e-17
131 1 86.3465 197.488 -5.55112e-17
132 2 133.813 27.6984 -5.55112e-17
133 1 65.749 42.8307 -5.55112e-17
134 1 196.905 208.43 -5.55112e-17
135 1 23.9958 183.388 -5.55112e-17
136 1 61.0895 60.7945 -5.55112e-17
137 1 48.9066 94.006 -5.55112e-17
138 1 70.5662 174.679 -5.55112e-17
139 1 132.701 148.833 -5.55112e-17
140 2 35.8169 178.186 -5.55112e-17
141 1 130.925 58.4708 -5.55112e-17
142 2 181.1 187.361 -5.55112e-17
143 1 57.8332 84.5139 -5.55112e-17
144 2 196.493 205.297 -5.55112e-17
145 1 64.6489 113.331 -5.55112e-17
146 1 214.442 108.156 -5.55112e-17
147 1 71.298 138.745 -5.55112e-17
148 1 184.64 152.687 -5.55112e-17
149 1 212.267 96.3329 -5.55112e-17
150 1 56.3302 186.064 -5.55112e-17
151 1 69.1586 91.3511 -5.55112e-17
152 1 0.120666 9.38367 -5.55112e-17
153 2 107.847 35.6627 -5.55112e-17
154 1 47.9672 66.4301 -5.55112e-17
155 1 124.315 162.642 -5.55112e-17
156 2 152.819 145.975 -5.55112e-17
157 1 188.058 198.605 -5.55112e-17
158 1 44.9027 82.0346 -5.55112e-17
159 1 187.414 169.21 -5.55112e-17
160 1 67.8782 94.0694 -5.55112e-17
161 1 97.9568 214.515 -5.55112e-17
162 1 133.734 78.771 -5.55112e-17
163 1 68.6929 152.119 -5.55112e-17
164 1 206.541 208.529 -5.55112e-17
165 1 67.4686 11.0285 -5.55112e-17
166 2 155.349 30.8244 -5.55112e-17
167 1 1.61996 179.98 -5.55112e-17
168 1 49.3792 197.413 -5.55112e-17
169 1 205.04 175.585 -5.55112e-17
170 1 170.781 26.0114 -5.55112e-17
171 1 23.3279 73.2479 -5.55112e-17
172 1 127.941 148.837 -5.55112e-17
173 1 112.491 168.488 -5.55112e-17
174 1 4.13349 176.38 -5.55112e-17
175 2 119.73 45.5336 -5.55112e-17
176 1 105.623 196.764 -5.55112e-17
177 2 51.5201 7.17188 -5.55112e-17
178 1 125.519 68.2936 -5.55112e-17
179 1 197.108 103.498 -5.55112e-17
180 1 123.209 78.5477 -5.55112e-17
181 1 176.164 9.46175 -5.55112e-17
182 2 212.398 141.347 -5.55112e-17
183 1 20.475 111.342 -5.55112e-17
184 1 71.9257 50.7332 -5.55112e-17
185 2 97.5804 145.77 -5.55112e-17
186 2 144.353 34.6436 -5.55112e-17
187 1 126.118 121.562 -5.55112e-17
188 1 209.857 187.589 -5.55112e-17
189 1 115.954 36.2798 -5.55112e-17
190 2 194.295 50.3139 -5.55112e-17
191 1 194.886 157.766 -5.55112e-17
192 2 97.2341 45.9771 -5.55112e-17
193 2 163.221 153.539 -5.55112e-17
194 1 31.2112 135.556 -5.55112e-17
195 1 117.293 117.875 -5.55112e-17
196 1 72.9314 173.892 -5.55112e-17
197 1 115.116 26.4305 -5.55112e-17
198 2 14.6625 207.439 -5.55112e-17
199 1 22.6458 112.632 -5.55112e-17
200 1 156.401 95.778 -5.55112e-17
201 2 99.0104 113.766 -5.55112e-17
202 1 129.804 21.5649 -5.55112e-17
203 1 2.98916 209.283 -5.55112e-17
204 1 15.4577 160.892 -5.55112e-17
205 2 194.586 27.1011 -5.55112e-17
206 1 215.617 35.7088 -5.55112e-17
207 1 129.254 140.517 -5.55112e-17
208 1 10.9102 2.39863 -5.55112e-17
209 1 85.2527 175.671 -5.55112e-17
210 1 29.4649 74.6666 -5.55112e-17
211 2 141.651 137.308 -5.55112e-17
212 1 119.748 168.167 -5.55112e-17
213 1 75.1656 0.529114 -5.55112e-17
214 1 212.229 210.874 -5.55112e-17
215 1 160.851 155.837 -5.55112e-17
216 1 115.875 125.412 -5.55112e-17
217 1 4.08733 142.455 -5.55112e-17
218 2 160.194 48.1432 -5.55112e-17
219 1 193.474 160.176 -5.55112e-17
220 2 35.1 7.5596 -5.55112e-17
221 1 116.452 56.6965 -5.55112e-17
222 1 210.978 39.2138 -5.55112e-17
223 1 41.8156 101.319 -5.55112e-17
224 2 81.5197 26.1757 -5.55112e-17
225 1 115.615 67.5121 -5.55112e-17
226 1 184.229 41.8583 -5.55112e-17
227 2 68.5541 62.0151 -5.55112e-17
228 1 5.0933 106.406 -5.55112e-17
229 1 81.9184 64.2779 -5.55112e-17
230 1 143.441 71.6527 -5.55112e-17
231 1 78.1355 103.262 -5.55112e-17
232 1 160.555 178.002 -5.55112e-17
233 1 157.661 174.582 -5.55112e-17
234 1 177.33 204.235 -5.55112e-17
235 1 81.9889 10.4232 -5.55112e-17
236 1 129.606 31.4079 -5.55112e-17
237 1 163.349 171.147 -5.55112e-17
238 1 38.1482 31.2744 -5.55112e-17
239 2 175.175 141.02 -5.55112e-17
240 1 0.930753 90.1163 -5.55112e-17
241 2 120.928 51.1658 -5.55112e-17
242 2 88.2203 151.282 -5.55112e-17
243 2 82.5599 124.53 -5.55112e-17
244 1 184.913 119.198 -5.55112e-17
245 1 78.9711 43.4109 -5.55112e-17
246 1 212.474 218.354 -5.55112e-17
247 1 124.611 153.078 -5.55112e-17
248 1 186.485 125.076 -5.55112e-17
249 1 44.6034 2.38615 -5.55112e-17
250 2 9.83233 213.575 -5.55112e-17
251 1 33.1921 17.2709 -5.55112e-17
252 1 194.137 53.3997 -5.55112e-17
253 1 169.047 88.2358 -5.55112e-17
254 2 195.86 20.6255 -5.55112e-17
255 1 142.756 147.085 -5.55112e-17
256 1 203.618 71.2213 -5.55112e-17
257 1 19.0453 44.9622 -5.55112e-17
258 2 130.711 109.661 -5.55112e-17
259 1 138.858 121.977 -5.55112e-17
260 1 181.725 108.926 -5.55112e-17
261 1 98.602 94.9509 -5.55112e-17
262 1 97.1621 20.8816 -5.55112e-17
263 1 2.73046 165.149 -5.55112e-17
264 1 66.8128 4.78573 -5.55112e-17
265 1 96.171 88.6936 -5.55112e-17
266 1 69.122 159.541 -5.55112e-17
267 1 49.6672 186.022 -5.55112e-17
268 1 104.777 137.965 -5.55112e-17
269 1 73.3289 103.867 -5.55112e-17
270 1 64.2825 157.466 -5.55112e-17
271 1 50.3036 170.567 -5.55112e-17
272 1 158.027 115.995 -5.55112e-17
273 1 115.214 9.77762 -5.55112e-17
274 2 111.442 113.55 -5.55112e-17
275 1 140.791 168.427 -5.55112e-17
276 2 190.171 191.989 -5.55112e-17
277 2 179.737 200.097 -5.55112e-17
278 1 188.078 86.2939 -5.55112e-17
279 2 17.9086 127.097 -5.55112e-17
280 1 112.696 160.729 -5.55112e-17
281 1 78.6653 154.319 -5.55112e-17
282 1 19.6313 182.657 -5.55112e-17
283 1 215.353 89.8976 -5.55112e-17
284 1 189.713 210.164 -5.55112e-17
285 1 97.0576 96.8725 -5.55112e-17
286 2 1.86995 47.134 -5.55112e-17
287 1 48.2643 86.7982 -5.55112e-17
288 1 174.074 126.614 -5.55112e-17
289 1 17.0273 150.517 -5.55112e-17
290 1 77.1121 37.1357 -5.55112e-17
291 1 179.308 163.889 -5.55112e-17
292 2 71.5777 47.3304 -5.55112e-17
293 2 11.3798 142.321 -5.55112e-17
294 1 205.34 56.2067 -5.55112e-17
295 1 76.9412 52.4562 -5.55112e-17
296 1 4.78767 29.6392 -5.55112e-17
297 1 184.235 149.677 -5.55112e-17
298 1 178.358 186.582 -5.55112e-17
299 1 73.073 168.036 -5.55112e-17
300 2 136.031 124.38 -5.55112e-17
301 1 102.466 172.046 -5.55112e-17
302 1 67.52 50.5065 -5.55112e-17
303 2 191.736 95.2445 -5.55112e-17
304 2 185.123 155.964 -5.55112e-17
305 1 40.4202 67.5506 -5.55112e-17
306 1 88.2603 97.9462 -5.55112e-17
307 1 45.1968 79.4981 -5.55112e-17
308 1 48.7127 152.891 -5.55112e-17
309 2 20.131 119.241 -5.55112e-17
310 1 107.234 189.438 -5.55112e-17
311 1 91.723 70.8831 -5.55112e-17
312 1 50.4923 126.318 -5.55112e-17
313 2 41.7825 174.456 -5.55112e-17
314 1 129.287 182.174 -5.55112e-17
315 1 214.774 167.466 -5.55112e-17
316 1 116.691 33.9752 -5.55112e-17
317 1 103.009 162.471 -5.55112e-17
318 1 188.826 102.269 -5.55112e-17
319 1 183.135 117.004 -5.55112e-17
320 1 180.037 74.2214 -5.55112e-17
321 1 55.5683 76.9178 -5.55112e-17
322 1 177.394 107.117 -5.55112e-17
323 1 129.48 83.4814 -5.55112e-17
324 1 204.453 187.745 -5.55112e-17
325 1 182.55 67.5215 -5.55112e-17
326 1 91.3182 157.995 -5.55112e-17
327 2 170.318 149.723 -5.55112e-17
328 1 174.959 7.40148 -5.55112e-17
329 2 139.257 29.9473 -5.55112e-17
330 1 30.9295 63.8512 -5.55112e-17
331 1 143.328 85.4761 -5.55112e-17
332 2 25.8822 103.541 -5.55112e-17
333 1 125.601 127.119 -5.55112e-17
334 1 87.2359 165.735 -5.55112e-17
335 1 91.6588 117.084 -5.55112e-17
336 1 59.1144 109.401 -5.55112e-17
337 1 0.792963 11.4319 -5.55112e-17
338 1 52.3687 124.761 -5.55112e-17
339 1 191.969 33.7754 -5.55112e-17
340 1 200.615 59.4245 -5.55112e-17
341 1 213.659 117.565 -5.55112e-17
342 1 48.1556 47.3458 -5.55112e-17
343 1 193.641 174.975 -5.55112e-17
344 1 187.371 21.5332 -5.55112e-17
345 1 85.551 149.9 -5.55112e-17
346 1 86.1649 194.168 -5.55112e-17
347 1 23.783 64.3805 -5.55112e-17
348 1 24.7261 106.124 -5.55112e-17
349 1 56.066 60.7295 -5.55112e-17
350 2 141.422 178.378 -5.55112e-17
351 1 31.2401 82.6022 -5.55112e-17
352 1 64.4351 90.4499 -5.55112e-17
353 1 6.31624 81.5409 -5.55112e-17
354 1 198.67 91.4839 -5.55112e-17
355 1 54.3649 104.043 -5.55112e-17
356 1 187.154 55.1461 -5.55112e-17
357 1 41.6289 128.724 -5.55112e-17
358 1 75.0207 85.2389 -5.55112e-17
359 1 140.751 151.086 -5.55112e-17
360 1 14.859 182.53 -5.55112e-17
361 1 212.985 88.5444 -5.55112e-17
362 1 147.479 38.3359 -5.55112e-17
363 1 118.419 207.14 -5.55112e-17
364 2 3.5183 41.2241 -5.55112e-17
365 1 121.406 2.70215 -5.55112e-17
366 1 94.4107 77.478 -5.55112e-17
367 1 84.1299 215.748 -5.55112e-17
368 1 199.67 193.054 -5.55112e-17
369 2 77.2108 65.6573 -5.55112e-17
370 1 130.087 54.3469 -5.55112e-17
371 1 60.2377 163.689 -5.55112e-17
372 2 44.6737 102.727 -5.55112e-17
373 2 93.7906 112.29 -5.55112e-17
374 1 189.725 212.922 -5.55112e-17
375 1 153.479 170.397 -5.55112e-17
376 1 206.207 204.007 -5.55112e-17
377 1 108.28 184.99 -5.55112e-17
378 1 181.82 148.602 -5.55112e-17
379 1 112.927 157.004 -5.55112e-17
380 1 93.841 138.62 -5.55112e-17
381 1 194.255 215.302 -5.55112e-17
382 1 16.7496 104.272 -5.55112e-17
383 1 114.762 164.814 -5.55112e-17
384 1 15.6543 102.073 -5.55112e-17
385 1 147.863 125.337 -5.55112e-17
386 2 11.7136 216.831 -5.55112e-17
387 1 48.6338 120.253 -5.55112e-17
388 1 86.3456 214.426 -5.55112e-17
389 1 171.111 48.5278 -5.55112e-17
390 2 79.0218 160.028 -5.55112e-17
391 2 119.756 40.4807 -5.55112e-17
392 1 166.582 202.594 -5.55112e-17
393 1 189.565 8.87306 -5.55112e-17
394 1 127.95 67.8476 -5.55112e-17
395 1 27.8243 117.183 -5.55112e-17
396 1 168.28 130.063 -5.55112e-17
397 1 175.091 57.9534 -5.55112e-17
398 1 164.547 126.233 -5.55112e-17
399 1 208.46 72.5854 -5.55112e-17
400 1 19.3665 90.4261 -5.55112e-17
401 1 18.111 113.376 -5.55112e-17
402 2 216.62 165.443 -5.55112e-17
403 1 193.256 146.129 -5.55112e-17
404 1 94.1407 125.722 -5.55112e-17
405 1 82.7021 14.9159 -5.55112e-17
406 1 151.818 47.3001 -5.55112e-17
407 2 79.476 0.571486 -5.55112e-17
408 1 27.7566 64.8496 -5.55112e-17
409 1 143.942 92.8335 -5.55112e-17
410 1 156.704 69.7139 -5.55112e-17
411 1 6.28803 3.8129 -5.55112e-17
412 1 203.552 180.35 -5.55112e-17
413 1 7.59318 23.4096 -5.55112e-17
414 1 111.421 185.902 -5.55112e-17
415 1 216.741 106.864 -5.55112e-17
416 1 98.0646 60.3514 -5.55112e-17
417 1 191.711 162.586 -5.55112e-17
418 2 83.5152 204.573 -5.55112e-17
419 1 117.66 9.11403 -5.55112e-17
420 2 98.2068 74.0347 -5.55112e-17
421 1 215.3 180.277 -5.55112e-17
422 1 49.8163 84.9568 -5.55112e-17
423 2 173.779 85.3689 -5.55112e-17
424 1 211.945 162.912 -5.55112e-17
425 1 191.734 52.8445 -5.55112e-17
426 1 182.787 203.942 -5.55112e-17
427 1 197.879 5.80502 -5.55112e-17
428 1 89.9644 122.459 -5.55112e-17
429 1 19.2571 188.181 -5.55112e-17
430 1 58.0052 210.823 -5.55112e-17
431 1 168.878 15.8985 -5.55112e-17
432 1 213.34 55.054 -5.55112e-17
433 1 33.0753 209.806 -5.55112e-17
434 1 33.9453 175.79 -5.55112e-17
435 1 35.8273 122.12 -5.55112e-17
436 1 32.5217 201.89 -5.55112e-17
437 1 205.09 40 -5.55112e-17
438 2 188.937 162.784 -5.55112e-17
439 1 99.5448 198.154 -5.55112e-17
440 1 104.68 41.8843 -5.55112e-17
441 1 42.2161 202.591 -5.55112e-17
442 1 169.547 71.1448 -5.55112e-17
443 1 8.49974 208.811 -5.55112e-17
444 1 38.0787 170.287 -5.55112e-17
445 1 9.40859 113.123 -5.55112e-17
446 1 138.282 218.103 -5.55112e-17
447 1 164.133 128.551 -5.55112e-17
448 1 132.084 133.699 -5.55112e-17
449 1 89.3955 200.86 -5.55112e-17
450 1 200.47 22.2772 -5.55112e-17
451 1 150.398 117.931 -5.55112e-17
452 1 85.0056 134.197 -5.55112e-17
453 1 159.98 69.4379 -5.55112e-17
454 1 162.426 175.786 -5.55112e-17
455 1 93.6221 181.03 -5.55112e-17
456 1 40.7546 78.8832 -5.55112e-17
457 1 153.569 148.812 -5.55112e-17
458 1 60.3504 210.098 -5.55112e-17
459 1 121.427 74.3144 -5.55112e-17
460 1 204.654 101.253 -5.55112e-17
461 1 4.636 216.091 -5.55112e-17
462 1 177.896 29.1806 -5.55112e-17
463 1 172.655 21.9741 -5.55112e-17
464 1 52.7812 176.806 -5.55112e-17
465 1 14.6639 176.876 -5.55112e-17
466 1 188.596 146.197 -5.55112e-17
467 1 56.9585 88.5218 -5.55112e-17
468 1 212.576 173.298 -5.55112e-17
469 1 71.7114 187.966 -5.55112e-17
470 1 148.107 155.346 -5.55112e-17
471 1 137.992 6.21553 -5.55112e-17
472 1 206.467 199.585 -5.55112e-17
473 1 22.8325 138.835 -5.55112e-17
474 1 164.924 133.637 -5.55112e-17
475 1 151.831 108.367 -5.55112e-17
476 2 45.7985 107.945 -5.55112e-17
477 1 201.386 94.8108 -5.55112e-17
478 1 202.427 156.7 -5.55112e-17
479 1 145.141 181.701 -5.55112e-17
480 1 200.149 10.4478 -5.55112e-17
481 1 21.6372 116.703 -5.55112e-17
482 1 105.513 94.7817 -5.55112e-17
483 1 207.588 144.752 -5.55112e-17
484 2 0.624641 196.041 -5.55112e-17
485 1 209.892 11.3095 -5.55112e-17
486 1 124.52 123.245 -5.55112e-17
487 1 57.8376 102.002 -5.55112e-17
488 1 92.864 200.736 -5.55112e-17
489 1 73.9594 211.778 -5.55112e-17
490 1 81.1025 155.264 -5.55112e-17
491 1 78.9264 38.663 -5.55112e-17
492 1 52.6884 192.222 -5.55112e-17
493 1 66.5403 153.502 -5.55112e-17
494 1 121.138 53.8126 -5.55112e-17
495 1 79.6535 162.67 -5.55112e-17
496 2 138.013 93.5616 -5.55112e-17
497 1 43.2004 165.924 -5.55112e-17
498 1 185.223 73.7124 -5.55112e-17
499 2 97.6676 195.538 -5.55112e-17
500 1 88.841 95.4515 -5.55112e-17
501 2 149.326 43.7949 -5.55112e-17
502 2 3.05008 69.8222 -5.55112e-17
503 1 132.951 66.554 -5.55112e-17
504 1 181.62 96.0943 -5.55112e-17
505 1 187.966 196.167 -5.55112e-17
506 1 6.04871 66.3982 -5.55112e-17
507 1 100.965 66.3746 -5.55112e-17
508 1 4.71417 179.175 -5.55112e-17
509 2 177.679 78.8284 -5.55112e-17
510 2 188.966 143.335 -5.55112e-17
511 1 34.1169 34.1918 -5.55112e-17
512 2 176.246 146.956 -5.55112e-17
513 1 97.8602 182.789 -5.55112e-17
514 1 189.898 21.7628 -5.55112e-17
515 1 76.0267 39.1924 -5.55112e-17
516 1 134.431 55.8859 -5.55112e-17
517 1 116.074 132.699 -5.55112e-17
518 2 34.8485 147.876 -5.55112e-17
519 1 194.189 9.10581 -5.55112e-17
520 2 35.0816 142.617 -5.55112e-17
521 1 6.64948 37.4645 -5.55112e-17
522 1 28.7824 183.69 -5.55112e-17
523 1 34.7408 119.497 -5.55112e-17
524 1 38.9969 56.3516 -5.55112e-17
525 1 69.8191 52.2151 -5.55112e-17
526 1 20.4999 78.0302 -5.55112e-17
527 1 155.629 7.89312 -5.55112e-17
528 1 49.0083 37.1788 -5.55112e-17
529 1 53.4196 28.383 -5.55112e-17
530 1 216.086 65.6134 -5.55112e-17
531 1 141.913 64.6259 -5.55112e-17
532 1 135.299 115.854 -5.55112e-17
533 1 85.5763 167.558 -5.55112e-17
534 1 67.456 16.9118 -5.55112e-17
535 1 48.1811 125.16 -5.55112e-17
536 1 25.0234 196.667 -5.55112e-17
537 1 175.015 120.183 -5.55112e-17
538 1 187.05 206.643 -5.55112e-17
539 1 215.013 193.299 -5.55112e-17
540 1 141.84 25.4168 -5.55112e-17
541 1 62.3433 122.742 -5.55112e-17
542 1 5.4534 68.7379 -5.55112e-17
543 1 18.7843 152.242 -5.55112e-17
544 1 68.1264 134.606 -5.55112e-17
545 1 162.933 60.4378 -5.55112e-17
546 1 47.521 53.1302 -5.55112e-17
547 1 211.533 23.4673 -5.55112e-17
548 1 205.675 109.721 -5.55112e-17
549 1 73.4048 114.126 -5.55112e-17
550 2 19.7092 138.672 -5.55112e-17
551 2 122.839 68.8725 -5.55112e-17
552 2 121.924 191.072 -5.55112e-17
553 1 17.6609 92.4809 -5.55112e-17
554 1 12.5359 167.576 -5.55112e-17
555 2 55.53 30.3351 -5.55112e-17
556 1 47.7521 42.5492 -5.55112e-17
557 1 119.37 186.873 -5.55112e-17
558 1 209.04 100.606 -5.55112e-17
559 1 164.261 87.4766 -5.55112e-17
560 1 50.0198 51.5096 -5.55112e-17
561 1 90.6439 134.235 -5.55112e-17
562 1 207.968 16.5399 -5.55112e-17
563 2 136.627 208.124 -5.55112e-17
564 1 202.572 86.112 -5.55112e-17
565 1 132.864 17.9127 -5.55112e-17
566 1 44.5729 49.7213 -5.55112e-17
567 1 29.8456 216.846 -5.55112e-17
568 1 174.891 183.13 -5.55112e-17
569 1 61.4139 159.733 -5.55112e-17
570 1 8.13575 167.04 -5.55112e-17
571 1 26.2594 159.015 -5.55112e-17
572 1 42.9192 66.8359 -5.55112e-17
573 1 202.68 143.241 -5.55112e-17
574 1 213.165 127.926 -5.55112e-17
575 1 186.994 127.439 -5.55112e-17
576 1 75.7837 108.81 -5.55112e-17
577 1 69.103 157.133 -5.55112e-17
578 1 180.307 117.985 -5.55112e-17
579 1 37.477 215.773 -5.55112e-17
580 1 49.6844 34.7607 -5.55112e-17
581 1 52.7148 30.9171 -5.55112e-17
582 1 155.746 27.9872 -5.55112e-17
583 1 17.5819 207.427 -5.55112e-17
584 2 0.303114 67.3801 -5.55112e-17
585 1 78.9969 27.6222 -5.55112e-17
586 1 200.738 125.409 -5.55112e-17
587 1 146.603 57.9394 -5.55112e-17
588 1 9.08797 41.9698 -5.55112e-17
589 1 57.1677 171.213 -5.55112e-17
590 1 128.482 169.145 -5.55112e-17
591 1 89.8329 109.271 -5.55112e-17
592 1 124.389 43.0873 -5.55112e-17
593 1 139.902 85.8227 -5.55112e-17
594 1 70.1185 66.5085 -5.55112e-17
595 1 163.228 4.64737 -5.55112e-17
596 1 1.50899 203.993 -5.55112e-17
597 2 62.8247 162.522 -5.55112e-17
598 1 207.951 67.7942 -5.55112e-17
599 1 83.7807 27.8447 -5.55112e-17
600 1 160.23 7.80013 -5.55112e-17
601 1 173.146 52.9964 -5.55112e-17
602 1 145.187 163.197 -5.55112e-17
603 1 214.005 94.4878 -5.55112e-17
604 1 164.046 73.6925 -5.55112e-17
605 2 125.048 185.543 -5.55112e-17
606 1 71.6561 150.755 -5.55112e-17
607 2 126.115 197.926 -5.55112e-17
608 1 156.072 10.2806 -5.55112e-17
609 1 149.199 24.0384 -5.55112e-17
610 1 57.0571 81.7033 -5.55112e-17
611 1 21.6473 88.7677 -5.55112e-17
612 1 85.9844 6.99434 -5.55112e-17
613 1 199.42 186.797 -5.55112e-17
614 2 217.341 3.90479 -5.55112e-17
615 1 71.0237 166.268 -5.55112e-17
616 1 62.6171 205.776 -5.55112e-17
617 1 87.8162 104.791 -5.55112e-17
618 1 22.101 148.462 -5.55112e-17
619 1 165.613 60.854 -5.55112e-17
620 1 45.8856 61.8327 -5.55112e-17
621 1 187.278 114.97 -5.55112e-17
622 1 165.644 138.486 -5.55112e-17
623 1 143.838 165.607 -5.55112e-17
624 1 128.636 64.8776 -5.55112e-17
625 1 35.1532 151.194 -5.55112e-17
626 1 134.593 135.164 -5.55112e-17
627 1 145.729 193.616 -5.55112e-17
628 1 155.537 209.2 -5.55112e-17
629 1 26.0198 203.762 -5.55112e-17
630 2 120.607 90.4346 -5.55112e-17
631 1 154.996 71.7164 -5.55112e-17
632 1 0.363303 216.937 -5.55112e-17
633 1 161.036 67.0934 -5.55112e-17
634 1 182.818 211.731 -5.55112e-17
635 1 162.648 7.06043 -5.55112e-17
636 1 55.5745 152.801 -5.55112e-17
637 1 73.1739 121.734 -5.55112e-17
638 1 91.381 114.529 -5.55112e-17
639 2 188.789 1.49671 -5.55112e-17
640 1 210.127 164.681 -5.55112e-17
641 1 28.0422 210.141 -5.55112e-17
642 1 173.472 146.063 -5.55112e-17
643 2 124.362 73.6837 -5.55112e-17
644 1 199.947 127.577 -5.55112e-17
645 1 2.66523 100.079 -5.55112e-17
646 2 61.7904 154.664 -5.55112e-17
647 1 132.974 212.299 -5.55112e-17
648 1 93.3166 24.7466 -5.55112e-17
649 2 16.5172 192.269 -5.55112e-17
650 1 159.179 80.6778 -5.55112e-17
651 1 120.977 173.257 -5.55112e-17
652 1 136.967 49.547 -5.55112e-17
653 1 143.033 42.0647 -5.55112e-17
654 1 205.678 89.1849 -5.55112e-17
655 2 56.2823 138.928 -5.55112e-17
656 1 94.5606 106.911 -5.55112e-17
657 2 126.46 56.3989 -5.55112e-17
658 1 29.7646 49.0213 -5.55112e-17
659 2 89.2047 82.8141 -5.55112e-17
660 1 56.7519 74.463 -5.55112e-17
661 1 202.331 128.53 -5.55112e-17
662 1 122.854 45.129 -5.55112e-17
663 1 195.038 202.423 -5.55112e-17
664 1 218.423 105.201 -5.55112e-17
665 1 17.4242 173.253 -5.55112e-17
666 2 18.706 95.4204 -5.55112e-17
667 1 152.316 71.3285 -5.55112e-17
668 2 78.1278 7.1484 -5.55112e-17
669 1 61.9183 82.4681 -5.55112e-17
670 1 45.1519 150.312 -5.55112e-17
671 2 119.158 76.1465 -5.55112e-17
672 1 41.3164 122.055 -5.55112e-17
673 1 14.6382 215.321 -5.55112e-17
674 1 108.81 111.997 -5.55112e-17
675 1 176.852 48.9829 -5.55112e-17
676 1 73.2105 171.015 -5.55112e-17
677 1 98.5788 16.1649 -5.55112e-17
678 1 75.2529 8.41726 -5.55112e-17
679 2 79.8274 15.6876 -5.55112e-17
680 1 185.32 210.51 -5.55112e-17
681 2 33.3212 212.758 -5.55112e-17
682 1 122.266 167.841 -5.55112e-17
683 1 101.324 127.736 -5.55112e-17
684 1 157.349 159.951 -5.55112e-17
685 1 146.299 159.671 -5.55112e-17
686 1 204.541 138.554 -5.55112e-17
687 1 38.8848 12.0244 -5.55112e-17
688 1 136.195 77.911 -5.55112e-17
689 2 26.6879 162.603 -5.55112e-17
690 1 158.995 85.401 -5.55112e-17
691 1 171.641 72.8635 -5.55112e-17
692 1 45.6223 180.813 -5.55112e-17
693 1 8.44574 204.207 -5.55112e-17
694 1 154.644 143.496 -5.55112e-17
695 1 115.024 73.1009 -5.55112e-17
696 1 73.8925 156.667 -5.55112e-17
697 1 218.163 21.5992 -5.55112e-17
698 1 25.0553 25.6431 -5.55112e-17
699 1 57.7083 160.368 -5.55112e-17
700 1 11.4781 80.5284 -5.55112e-17
701 1 40.2316 7.31297 -5.55112e-17
702 1 69.18 217.176 -5.55112e-17
703 2 103.224 156.773 -5.55112e-17
704 1 106.155 48.9153 -5.55112e-17
705 2 155.655 155.04 -5.55112e-17
706 1 210.414 148.087 -5.55112e-17
707 1 191.093 186.042 -5.55112e-17
708 1 157.532 210.854 -5.55112e-17
709 1 130.661 167.709 -5.55112e-17
710 1 64.6676 218.99 -5.55112e-17
711 1 92.5292 153.205 -5.55112e-17
712 1 113.764 50.5149 -5.55112e-17
713 1 65.267 204.564 -5.55112e-17
714 1 216.288 6.63159 -5.55112e-17
715 1 179.76 155.972 -5.55112e-17
716 1 144.809 122.449 -5.55112e-17
717 1 81.6872 158.081 -5.55112e-17
718 1 125.536 53.3125 -5.55112e-17
719 2 54.8133 159.583 -5.55112e-17
720 1 8.80224 149.745 -5.55112e-17
721 1 135.235 205.113 -5.55112e-17
722 1 68.5403 127.196 -5.55112e-17
723 2 165.775 191.131 -5.55112e-17
724 1 28.4933 0.375638 -5.55112e-17
725 1 59.3678 82.5046 -5.55112e-17
726 1 111.097 37.1244 -5.55112e-17
727 1 74.5938 28.704 -5.55112e-17
728 2 13.9952 4.34399 -5.55112e-17
729 1 99.2481 33.3018 -5.55112e-17
730 1 206.476 21.1555 -5.55112e-17
731 1 207.352 183.57 -5.55112e-17
732 1 61.7177 26.0108 -5.55112e-17
733 1 171.376 187.172 -5.55112e-17
734 1 129.874 69.7845 -5.55112e-17
735 1 120.957 87.5404 -5.55112e-17
736 2 28.4141 33.8588 -5.55112e-17
737 1 95.7504 99.3768 -5.55112e-17
738 1 92.7929 172.064 -5.55112e-17
739 1 15.3777 125.776 -5.55112e-17
740 1 119.634 22.9518 -5.55112e-17
741 2 52.4643 53.1563 -5.55112e-17
742 1 128.539 127.631 -5.55112e-17
743 1 3.3685 153.756 -5.55112e-17
744 2 111.934 197.805 -5.55112e-17
745 1 143.555 120.295 -5.55112e-17
746 1 203.436 81.9617 -5.55112e-17
747 2 46.756 84.4354 -5.55112e-17
748 1 196.393 57.8876 -5.55112e-17
749 1 53.8796 60.3633 -5.55112e-17
750 1 61.3476 4.29547 -5.55112e-17
751 1 99.204 156.686 -5.55112e-17
752 1 161.426 27.5005 -5.55112e-17
753 1 211.78 64.9591 -5.55112e-17
754 1 6.38982 86.1136 -5.55112e-17
755 1 193.672 57.9912 -5.55112e-17
756 2 3.55513 129.713 -5.55112e-17
757 1 122.702 180.804 -5.55112e-17
758 1 190.869 19.3223 -5.55112e-17
759 1 98.1686 177.88 -5.55112e-17
760 1 56.6141 188.464 -5.55112e-17
761 1 72.4801 55.9258 -5.55112e-17
762 1 14.6954 146.515 -5.55112e-17
763 1 209.697 74.7898 -5.55112e-17
764 2 173.066 111.381 -5.55112e-17
765 1 100.138 152.759 -5.55112e-17
766 1 12.7882 205.293 -5.55112e-17
767 1 121.639 115.858 -5.55112e-17
768 1 191.478 117.08 -5.55112e-17
769 1 177.782 157.647 -5.55112e-17
770 2 32.948 73.4557 -5.55112e-17
771 1 54.5778 88.3142 -5.55112e-17
772 1 207.075 28.5613 -5.55112e-17
773 1 112.212 10.9647 -5.55112e-17
774 1 127.202 36.8684 -5.55112e-17
775 1 63.8704 128.123 -5.55112e-17
776 1 39.5779 103.312 -5.55112e-17
777 1 140.288 126.666 -5.55112e-17
778 1 175.057 209.707 -5.55112e-17
779 1 74.2816 145.876 -5.55112e-17
780 1 106.708 216.456 -5.55112e-17
781 1 202.592 123.508 -5.55112e-17
782 1 184.545 12.6437 -5.55112e-17
783 1 43.285 151.95 -5.55112e-17
784 2 87.9998 133.475 -5.55112e-17
785 1 70.3013 89.129 -5.55112e-17
786 1 122.11 71.9724 -5.55112e-17
787 1 114.313 127.846 -5.55112e-17
788 1 73.473 154.186 -5.55112e-17
789 2 6.7651 217.97 -5.55112e-17
790 1 158.739 89.9709 -5.55112e-17
791 2 60.0566 114.123 -5.55112e-17
792 2 98.5372 187.297 -5.55112e-17
793 2 80.4954 168.927 -5.55112e-17
794 1 59.8483 124.725 -5.55112e-17
795 1 66.2061 60.4341 -5.55112e-17
796 1 4.36366 113.664 -5.55112e-17
797 1 168.697 145.576 -5.55112e-17
798 2 178.255 7.63324 -5.55112e-17
799 2 115.829 4.37928 -5.55112e-17
800 2 210.934 59.7283 -5.55112e-17
801 1 100.856 5.40025 -5.55112e-17
802 1 186.367 89.15 -5.55112e-17
803 1 183.737 187.954 -5.55112e-17
804 2 196.993 0.944901 -5.55112e-17
805 1 3.13149 89.1532 -5.55112e-17
806 1 99.7802 58.3661 -5.55112e-17
807 2 171.318 193.699 -5.55112e-17
808 1 186.687 101.014 -5.55112e-17
809 2 207.43 147.969 -5.55112e-17
810 1 72.7005 206.405 -5.55112e-17
811 1 84.8489 141.327 -5.55112e-17
812 1 114.721 154.17 -5.55112e-17
813 2 132.549 53.0819 -5.55112e-17
814 1 30.6508 166.355 -5.55112e-17
815 1 53.1016 81.0385 -5.55112e-17
816 1 161.85 217.361 -5.55112e-17
817 1 138.661 21.8511 -5.55112e-17
818 1 25.4476 23.0554 -5.55112e-17
819 1 26.3327 78.1158 -5.55112e-17
820 1 33.7956 56.5993 -5.55112e-17
821 1 214.355 163.81 -5.55112e-17
822 2 94.1198 45.915 -5.55112e-17
823 2 25.2727 111.912 -5.55112e-17
824 1 34.2797 76.0677 -5.55112e-17
825 1 108.485 134.082 -5.55112e-17
826 1 118.278 95.0573 -5.55112e-17
827 1 190.229 81.9198 -5.55112e-17
828 1 19.8255 61.3914 -5.55112e-17
829 1 103.12 80.9439 -5.55112e-17
830 1 131.477 181.022 -5.55112e-17
831 1 199.741 96.6567 -5.55112e-17
832 1 200.4 130.098 -5.55112e-17
833 1 79.2485 156.895 -5.55112e-17
834 1 56.2485 142.175 -5.55112e-17
835 1 157.832 152.498 -5.55112e-17
836 1 180.141 41.6167 -5.55112e-17
837 1 196.241 117.167 -5.55112e-17
838 1 20.336 93.267 -5.55112e-17
839 2 35.385 156.926 -5.55112e-17
840 1 218.442 177.757 -5.55112e-17
841 2 15.4068 113.935 -5.55112e-17
842 1 59.345 129.326 -5.55112e-17
843 2 109.353 175.643 -5.55112e-17
844 1 177.217 138.862 -5.55112e-17
845 1 59.0078 155.985 -5.55112e-17
846 1 132.438 161.062 -5.55112e-17
847 1 22.0663 71.0809 -5.55112e-17
848 1 36.3878 10.0364 -5.55112e-17
849 1 32.7436 110.559 -5.55112e-17
850 1 85.3777 131.185 -5.55112e-17
851 1 5.5916 61.8011 -5.55112e-17
852 1 145.505 154.238 -5.55112e-17
853 1 43.4632 189.695 -5.55112e-17
854 1 185.969 106.381 -5.55112e-17
855 1 159.74 87.7225 -5.55112e-17
856 1 194.939 55.657 -5.55112e-17