ITEM: TIMESTEP
0
ITEM: NUMBER OF ATOMS
7200
ITEM: BOX BOUNDS xy xz yz pp pp pp
0.0000000000000000e+00 2.1900000000000000e+02 0.0000000000000000e+00
0.0000000000000000e+00 2.1900000000000000e+02 0.0000000000000000e+00
-3.6499999999999999e-01 3.6499999999999999e-01 0.0000000000000000e+00
ITEM: ATOMS id type x y z
1 1 38.7011 83.1309 -5.55112e-17
2 1 216.568 5.99687 -5.55112e-17
3 1 94.7176 27.8766 -5.55112e-17
4 1 11.4971 102.804 -5.55112e-17
5 1 116.388 79.6627 -5.55112e-17
6 1 65.2163 78.3349 -5.55112e-17
7 1 197.64 37.9641 -5.55112e-17
8 2 15.8989 91.4307 -5.55112e-17
9 1 81.9707 127.586 -5.55112e-17
10 2 164.226 144.925 -5.55112e-17
11 1 213.769 217.865 -5.55112e-17
12 1 125.295 30.2783 -5.55112e-17
13 2 135.909 9.50185 -5.55112e-17
14 1 118.441 12.7683 -5.55112e-17
15 1 76.1268 100.916 -5.55112e-17
16 2 150.908 119.467 -5.55112e-17
17 1 40.2018 46.7982 -5.55112e-17
18 2 151.216 92.7343 -5.55112e-17
19 1 27.891 74.2186 -5.55112e-17
20 1 103.16 165.662 -5.55112e-17
21 1 96.1073 143.104 -5.55112e-17
22 2 164.073 8.77728 -5.55112e-17
23 2 86.2088 141.307 -5.55112e-17
24 1 178.068 109.345 -5.55112e-17
25 1 8.48558 199.824 -5.55112e-17
26 2 77.8456 67.4155 -5.55112e-17
27 1 207.804 129.121 -5.55112e-17
28 2 44.6252 29.2089 -5.55112e-17
29 1 55.8127 87.4374 -5.55112e-17
30 1 3.00359 40.128 -5.55112e-17
31 1 135.305 185.237 -5.55112e-17
32 1 161.803 123.265 -5.55112e-17
33 1 163.703 73.8279 -5.55112e-17
34 1 120.217 56.3948 -5.55112e-17
35 1 57.8179 83.6216 -5.55112e-17
36 1 47.588 116.522 -5.55112e-17
37 2 42.6755 154.828 -5.55112e-17
38 1 33.909 165.412 -5.55112e-17
39 1 21.5776 31.3671 -5.55112e-17
40 1 1.07891 187.197 -5.55112e-17
41 1 192.012 68.5414 -5.55112e-17
42 1 9.37512 202.435 -5.55112e-17
43 1 157.044 44.139 -5.55112e-17
44 1 113.734 71.7417 -5.55112e-17
45 1 64.5484 152.231 -5.55112e-17
46 1 83.4548 125.229 -5.55112e-17
47 1 192.336 66.0517 -5.55112e-17
48 2 187.293 142.069 -5.55112e-17
49 1 83.4156 46.6793 -5.55112e-17
50 1 60.0009 105.046 -5.55112e-17
51 1 33.7916 93.2445 -5.55112e-17
52 1 82.6283 188.956 -5.55112e-17
53 1 47.6598 59.674 -5.55112e-17
54 1 87.6994 67.9008 -5.55112e-17
55 1 111.572 199.552 -5.55112e-17
56 1 152.746 76.5864 -5.55112e-17
57 2 152.93 89.955 -5.55112e-17
58 1 121.304 48.4028 -5.55112e-17
59 1 89.9095 89.8096 -5.55112e-17
60 2 25.7611 188.894 -5.55112e-17
61 2 92.6351 215.278 -5.55112e-17
62 1 166.846 40.1492 -5.55112e-17
63 1 191.295 24.5473 -5.55112e-17
64 1 83.3275 162.676 -5.55112e-17
65 1 22.2297 216.267 -5.55112e-17
66 1 104.642 9.9326 -5.55112e-17
67 1 210.61 22.9733 -5.55112e-17
68 1 23.0451 125.651 -5.55112e-17
69 1 218.978 71.4099 -5.55112e-17
70 1 193.638 9.26223 -5.55112e-17
71 1 155.107 46.0303 -5.55112e-17
72 1 113.219 83.3753 -5.55112e-17
73 1 118.568 184.504 -5.55112e-17
74 1 19.7691 161.602 -5.55112e-17
75 2 13.4742 124.488 -5.55112e-17
76 1 131.333 32.7213 -5.55112e-17
77 1 35.7353 171.964 -5.55112e-17
78 1 61.0285 47.1879 -5.55112e-17
79 2 104.974 29.4375 -5.55112e-17
80 1 114.437 69.3729 -5.55112e-17
81 1 111.342 204.408 -5.55112e-17
82 1 209.275 5.41909 -5.55112e-17
83 2 38.9701 41.3407 -5.55112e-17
84 1 67.9319 115.433 -5.55112e-17
85 1 58.9996 189.337 -5.55112e-17
86 1 95.8504 95.5865 -5.55112e-17
87 1 98.5372 111.226 -5.55112e-17
88 1 71.6523 141.509 -5.55112e-17
89 2 26.59 160.446 -5.55112e-17
90 2 93.8534 105.862 -5.55112e-17
91 1 51.502 128.566 -5.55112e-17
92 2 121.234 51.0591 -5.55112e-17
93 1 48.8344 105.892 -5.55112e-17
94 2 186.342 152.857 -5.55112e-17
95 1 14.4271 57.9304 -5.55112e-17
96 1 126.966 134.781 -5.55112e-17
97 1 169.98 178.756 -5.55112e-17
98 1 93.4632 21.0643 -5.55112e-17
99 1 182.23 35.0833 -5.55112e-17
100 1 60.6342 8.51458 -5.55112e-17
101 1 165.584 52.1967 -5.55112e-17
102 1 109.195 183.971 -5.55112e-17
103 1 138.865 178.38 -5.55112e-17
104 1 41.7898 90.5825 -5.55112e-17
105 1 184.487 190.272 -5.55112e-17
106 1 181.808 106.087 -5.55112e-17
107 2 132.326 14.255 -5.55112e-17
108 1 171.288 120.716 -5.55112e-17
109 1 164.366 123.301 -5.55112e-17
110 1 48.9034 163.74 -5.55112e-17
111 1 148.164 104.425 -5.55112e-17
112 1 19.6054 157.109 -5.55112e-17
113 1 165.32 19.4396 -5.55112e-17
114 1 196.647 166.281 -5.55112e-17
115 1 86.3669 145.854 -5.55112e-17
116 2 86.2846 123.536 -5.55112e-17
117 1 176.029 142.016 -5.55112e-17
118 1 50.5173 2.11642 -5.55112e-17
119 2 59.6768 145.66 -5.55112e-17
120 1 98.2541 41.6022 -5.55112e-17
121 1 73.0716 27.722 -5.55112e-17
122 1 56.7753 41.4428 -5.55112e-17
123 1 38.934 112.08 -5.55112e-17
124 1 43.8316 107.8 -5.55112e-17
125 1 107.26 177.105 -5.55112e-17
126 1 202.677 188.744 -5.55112e-17
127 1 147.004 42.3096 -5.55112e-17
128 1 154.127 65.8423 -5.55112e-17
129 1 105.013 167.406 -5.55112e-17
130 1 105.085 157.984 -5.55112e-17
131 1 61.0105 60.8476 -5.55112e-17
132 2 204.313 175.639 -5.55112e-17
133 1 73.4694 176.356 -5.55112e-17
134 1 78.1271 115.709 -5.55112e-17
135 1 143.87 157.721 -5.55112e-17
136 1 143.134 190.66 -5.55112e-17
137 1 36.2098 166.803 -5.55112e-17
138 1 9.50303 0.347177 -5.55112e-17
139 1 29.8138 34.2021 -5.55112e-17
140 2 176.368 156.779 -5.55112e-17
141 1 12.7088 188.708 -5.55112e-17
142 2 216.894 1.06631 -5.55112e-17
143 1 212.423 69.346 -5.55112e-17
144 2 53.2069 15.2104 -5.55112e-17
145 1 5.47633 199.306 -5.55112e-17
146 1 52.8049 216.988 -5.55112e-17
147 1 148.563 94.2705 -5.55112e-17
148 1 80.2945 21.013 -5.55112e-17
149 1 79.6279 35.201 -5.55112e-17
150 1 144.47 2.6618 -5.55112e-17
151 1 133.088 48.8211 -5.55112e-17
152 1 110.955 108.004 -5.55112e-17
153 2 84.5326 63.5011 -5.55112e-17
154 1 94.0944 195.614 -5.55112e-17
155 1 114.814 159.738 -5.55112e-17
156 2 112.745 100.767 -5.55112e-17
157 1 92.5411 208.501 -5.55112e-17
158 1 80.2778 100.322 -5.55112e-17
159 1 171.962 16.2172 -5.55112e-17
160 1 205.975 71.7866 -5.55112e-17
161 1 179.352 181.586 -5.55112e-17
162 1 0.703544 24.8422 -5.55112e-17
163 1 159.56 179.063 -5.55112e-17
164 1 142.156 182.205 -5.55112e-17
165 1 172.469 77.7159 -5.55112e-17
166 2 122.32 178.573 -5.55112e-17
167 1 173.747 155.192 -5.55112e-17
168 1 126.264 187.06 -5.55112e-17
169 1 204.995 199.874 -5.55112e-17
170 1 150.697 104.934 -5.55112e-17
171 1 61.7313 143.527 -5.55112e-17
172 1 30.4318 54.471 -5.55112e-17
173 1 14.0766 28.5903 -5.55112e-17
174 1 87.7671 139.235 -5.55112e-17
175 2 112.275 9.22538 -5.55112e-17
176 1 96.643 117.536 -5.55112e-17
177 2 209.506 83.3942 -5.55112e-17
178 1 195.821 110.499 -5.55112e-17
179 1 26.5162 168.592 -5.55112e-17
180 1 11.3944 207.486 -5.55112e-17
181 1 62.7074 176.309 -5.55112e-17
182 2 41.4697 81.8208 -5.55112e-17
183 1 51.6521 26.7743 -5.55112e-17
184 1 174.626 211.7 -5.55112e-17
185 2 77.0525 51.624 -5.55112e-17
186 2 123.796 81.2332 -5.55112e-17
187 1 211.825 139.991 -5.55112e-17
188 1 213.887 215.295 -5.55112e-17
189 1 113.241 173.422 -5.55112e-17
190 2 146.146 146.312 -5.55112e-17
191 1 65.2668 42.7972 -5.55112e-17
192 2 192.44 200.81 -5.55112e-17
193 2 13.5499 200.434 -5.55112e-17
194 1 1.93416 29.7732 -5.55112e-17
195 1 190.666 178.677 -5.55112e-17
196 1 64.1624 51.5194 -5.55112e-17
197 1 38.7945 189.613 -5.55112e-17
198 2 198.919 154.626 -5.55112e-17
199 1 118.458 41.2154 -5.55112e-17
200 1 190.478 162.616 -5.55112e-17
201 2 172.439 160.019 -5.55112e-17
202 1 96.1208 43.0235 -5.55112e-17
203 1 13.5354 74.9183 -5.55112e-17
204 1 152.172 70.1704 -5.55112e-17
205 2 107.717 13.4824 -5.55112e-17
206 1 157.11 50.4282 -5.55112e-17
207 1 161.136 53.5777 -5.55112e-17
208 1 8.40468 141.613 -5.55112e-17
209 1 187.114 7.35389 -5.55112e-17
210 1 90.3194 76.5044 -5.55112e-17
211 2 59.2099 158.865 -5.55112e-17
212 1 113.047 165.273 -5.55112e-17
213 1 218.919 52.335 -5.55112e-17
214 1 90.1232 0.994654 -5.55112e-17
215 1 18.384 136.311 -5.55112e-17
216 1 10.9422 183.254 -5.55112e-17
217 1 136.115 56.8427 -5.55112e-17
218 2 160.672 61.3077 -5.55112e-17
219 1 83.7148 44.1613 -5.55112e-17
220 2 5.19207 160.427 -5.55112e-17
221 1 1.52049 59.3767 -5.55112e-17
222 1 132.858 65.8189 -5.55112e-17
223 1 44.9026 137.153 -5.55112e-17
224 2 210.794 191.83 -5.55112e-17
225 1 181.674 180.878 -5.55112e-17
226 1 144.094 50.418 -5.55112e-17
227 2 214.785 177.073 -5.55112e-17
228 1 20.8922 41.5743 -5.55112e-17
229 1 37.5137 146.129 -5.55112e-17
230 1 46.6485 75.8119 -5.55112e-17
231 1 146.611 78.2552 -5.55112e-17
232 1 73.2328 8.01497 -5.55112e-17
233 1 147.12 35.7092 -5.55112e-17
234 1 195.502 186.056 -5.55112e-17
235 1 150.891 158.941 -5.55112e-17
236 1 206.43 76.4658 -5.55112e-17
237 1 20.7358 169.796 -5.55112e-17
238 1 15.9038 73.8427 -5.55112e-17
239 2 184.386 159.644 -5.55112e-17
240 1 41.8014 151.711 -5.55112e-17
241 2 79.3336 113.105 -5.55112e-17
242 2 149.345 146.999 -5.55112e-17
243 2 0.412914 163.68 -5.55112e-17
244 1 16.8797 50.8115 -5.55112e-17
245 1 139.287 167.322 -5.55112e-17
246 1 218.308 26.8252 -5.55112e-17
247 1 26.4979 135.401 -5.55112e-17
248 1 145.935 122.408 -5.55112e-17
249 1 177.236 212.782 -5.55112e-17
250 2 206.742 217.132 -5.55112e-17
251 1 141.253 116.307 -5.55112e-17
252 1 62.0139 151.789 -5.55112e-17
253 1 53.6912 198.705 -5.55112e-17
254 2 194.98 182.695 -5.55112e-17
255 1 43.8522 86.7024 -5.55112e-17
256 1 111.066 50.1808 -5.55112e-17
257 1 193.92 18.0382 -5.55112e-17
258 2 165.19 71.3691 -5.55112e-17
259 1 191.176 150.486 -5.55112e-17
260 1 16.8055 23.1882 -5.55112e-17
261 1 92.7882 172.769 -5.55112e-17
262 1 192.069 39.5643 -5.55112e-17
263 1 100.833 7.73343 -5.55112e-17
264 1 174.762 39.0886 -5.55112e-17
265 1 98.5392 171.188 -5.55112e-17
266 1 97.9646 152.181 -5.55112e-17
267 1 149.66 69.7824 -5.55112e-17
268 1 4.12126 83.4573 -5.55112e-17
269 1 202.566 212.87 -5.55112e-17
270 1 41.1232 169.323 -5.55112e-17
271 1 161.609 136.911 -5.55112e-17
272 1 173.036 188.512 -5.55112e-17
273 1 5.39539 156.899 -5.55112e-17
274 2 68.1504 44.123 -5.55112e-17
275 1 92.4297 58.5818 -5.55112e-17
276 2 151.182 67.3022 -5.55112e-17
277 2 216.586 50.7578 -5.55112e-17
278 1 203.001 116.983 -5.55112e-17
279 2 2.8358 199.624 -5.55112e-17
280 1 76.3129 103.538 -5.55112e-17
281 1 171.672 52.9358 -5.55112e-17
282 1 29.8471 128.098 -5.55112e-17
283 1 124.672 153.459 -5.55112e-17
284 1 39.4953 58.8775 -5.55112e-17
285 1 175.434 132.762 -5.55112e-17
286 2 133.999 162.044 -5.55112e-17
287 1 209.749 166.956 -5.55112e-17
288 1 195.594 136.671 -5.55112e-17
289 1 119.542 43.2259 -5.55112e-17
290 1 51.3281 73.8181 -5.55112e-17
291 1 95.3458 85.8167 -5.55112e-17
292 2 98.6272 198.08 -5.55112e-17
293 2 132.102 78.5802 -5.55112e-17
294 1 25.645 14.9576 -5.55112e-17
295 1 141.141 217.542 -5.55112e-17
296 1 92.0314 5.11899 -5.55112e-17
297 1 18.6877 164.012 -5.55112e-17
298 1 17.9759 88.1778 -5.55112e-17
299 1 204.738 102.306 -5.55112e-17
300 2 166.752 216.258 -5.55112e-17
301 1 87.0483 112.429 -5.55112e-17
302 1 186.187 51.0165 -5.55112e-17
303 2 77.3128 163.412 -5.55112e-17
304 2 34.2871 79.2642 -5.55112e-17
305 1 156.131 85.1468 -5.55112e-17
306 1 53.8911 127.788 -5.55112e-17
307 1 76.7536 70.3799 -5.55112e-17
308 1 112.012 151.694 -5.55112e-17
309 2 60.9546 81.9554 -5.55112e-17
310 1 85.1418 34.6898 -5.55112e-17
311 1 14.9911 177.269 -5.55112e-17
312 1 30.0264 74.9282 -5.55112e-17
313 2 135.557 157.444 -5.55112e-17
314 1 11.5671 190.947 -5.55112e-17
315 1 34.679 35.917 -5.55112e-17
316 1 1.99716 82.085 -5.55112e-17
317 1 32.8366 99.8684 -5.55112e-17
318 1 79.1047 168.533 -5.55112e-17
319 1 10.7385 82.5038 -5.55112e-17
320 1 7.05398 57.9024 -5.55112e-17
321 1 57.8851 0.965932 -5.55112e-17
322 1 100.506 47.6796 -5.55112e-17
323 1 131.16 11.6919 -5.55112e-17
324 1 27.1057 103.797 -5.55112e-17
325 1 14.7669 117.034 -5.55112e-17
326 1 146.285 102.665 -5.55112e-17
327 2 52.9887 83.7002 -5.55112e-17
328 1 136.984 150.185 -5.55112e-17
329 2 55.0125 155.494 -5.55112e-17
330 1 5.34795 0.915802 -5.55112e-17
331 1 197.573 178.555 -5.55112e-17
332 2 101.186 75.7499 -5.55112e-17
333 1 146.563 126.121 -5.55112e-17
334 1 192.534 91.904 -5.55112e-17
335 1 166.453 7.20065 -5.55112e-17
336 1 48.0998 187.695 -5.55112e-17
337 1 21.2984 198.114 -5.55112e-17
338 1 82.6458 21.398 -5.55112e-17
339 1 172.904 68.2857 -5.55112e-17
340 1 207.554 65.2166 -5.55112e-17
341 1 129.15 31.6596 -5.55112e-17
342 1 175.584 171.625 -5.55112e-17
343 1 164.789 64.0506 -5.55112e-17
344 1 180.036 41.8811 -5.55112e-17
345 1 200.242 71.3272 -5.55112e-17
346 1 122.091 159.999 -5.55112e-17
347 1 95.8603 50.7402 -5.55112e-17
348 1 43.7388 192.562 -5.55112e-17
349 1 86.63 129.056 -5.55112e-17
350 2 175.913 64.3968 -5.55112e-17
351 1 158.564 115.592 -5.55112e-17
352 1 55.3307 200.698 -5.55112e-17
353 1 113.384 215.339 -5.55112e-17
354 1 137.864 75.406 -5.55112e-17
355 1 126.91 77.6807 -5.55112e-17
356 1 20.647 180.457 -5.55112e-17
357 1 94.4473 1.98187 -5.55112e-17
358 1 216.766 163.743 -5.55112e-17
359 1 130.048 52.5901 -5.55112e-17
360 1 168.628 156.912 -5.55112e-17
361 1 136.401 73.0604 -5.55112e-17
362 1 214.902 30.1252 -5.55112e-17
363 1 156.35 82.3706 -5.55112e-17
364 2 184.304 147.5 -5.55112e-17
365 1 84.8043 99.6242 -5.55112e-17
366 1 105.818 107.572 -5.55112e-17
367 1 48.4889 218.462 -5.55112e-17
368 1 8.52013 161.4 -5.55112e-17
369 2 36.8971 28.9101 -5.55112e-17
370 1 111.164 91.1232 -5.55112e-17
371 1 154.74 63.1596 -5.55112e-17
372 2 44.8286 142.986 -5.55112e-17
373 2 22.6379 15.2903 -5.55112e-17
374 1 133.243 39.4988 -5.55112e-17
375 1 94.8661 79.8858 -5.55112e-17
376 1 20.428 53.0743 -5.55112e-17
377 1 143.632 164.806 -5.55112e-17
378 1 186.022 132.03 -5.55112e-17
379 1 8.54073 81.4567 -5.55112e-17
380 1 108.391 194.873 -5.55112e-17
381 1 124.223 180.347 -5.55112e-17
382 1 103.645 211.692 -5.55112e-17
383 1 41.7056 108.453 -5.55112e-17
384 1 112.711 149.333 -5.55112e-17
385 1 111.61 141.643 -5.55112e-17
386 2 116.007 218.704 -5.55112e-17
387 1 166.102 181.412 -5.55112e-17
388 1 12.3003 32.2122 -5.55112e-17
389 1 97.307 53.6762 -5.55112e-17
390 2 147.133 206.953 -5.55112e-17
391 2 93.1026 38.3393 -5.55112e-17
392 1 107 34.8684 -5.55112e-17
393 1 4.27276 27.9856 -5.55112e-17
394 1 184.925 137.474 -5.55112e-17
395 1 142.684 131.52 -5.55112e-17
396 1 45.9545 169.733 -5.55112e-17
397 1 211.83 0.404067 -5.55112e-17
398 1 74.3147 2.30724 -5.55112e-17
399 1 57.2512 131.102 -5.55112e-17
400 1 70.7455 123.81 -5.55112e-17
401 1 15.5514 174.675 -5.55112e-17
402 2 25.0448 162.965 -5.55112e-17
403 1 102.507 116.76 -5.55112e-17
404 1 72.8316 211.899 -5.55112e-17
405 1 79.1121 6.37003 -5.55112e-17
406 1 201.066 3.92627 -5.55112e-17
407 2 23.9718 43.2762 -5.55112e-17
408 1 103.908 77.012 -5.55112e-17
409 1 62.9933 8.92833 -5.55112e-17
410 1 194.968 143.933 -5.55112e-17
411 1 210.904 36.8413 -5.55112e-17
412 1 111.708 43.0206 -5.55112e-17
413 1 32.4708 37.7263 -5.55112e-17
414 1 166.033 169.289 -5.55112e-17
415 1 100.338 68.0938 -5.55112e-17
416 1 32.7947 102.595 -5.55112e-17
417 1 198.383 157.857 -5.55112e-17
418 2 84.4645 28.2377 -5.55112e-17
419 1 203.288 167.396 -5.55112e-17
420 2 71.3483 40.7449 -5.55112e-17
421 1 141.573 53.9952 -5.55112e-17
422 1 145.768 88.4975 -5.55112e-17
423 2 13.1379 132.004 -5.55112e-17
424 1 143.771 173.314 -5.55112e-17
425 1 188.214 182.837 -5.55112e-17
426 1 113.226 67.2655 -5.55112e-17
427 1 153.805 152.31 -5.55112e-17
428 1 22.878 181.1 -5.55112e-17
429 1 173.871 120.087 -5.55112e-17
430 1 66.3177 150.492 -5.55112e-17
431 1 210.95 125.613 -5.55112e-17
432 1 109.962 87.5793 -5.55112e-17
433 1 63.6891 40.5993 -5.55112e-17
434 1 174.106 48.1888 -5.55112e-17
435 1 74.3976 112.037 -5.55112e-17
436 1 171.088 28.7879 -5.55112e-17
437 1 10.7568 175.146 -5.55112e-17
438 2 108.776 42.5102 -5.55112e-17
439 1 160.604 87.7738 -5.55112e-17
440 1 106.463 184.086 -5.55112e-17
441 1 52.0618 214.475 -5.55112e-17
442 1 156.404 168.274 -5.55112e-17
443 1 209.31 53.5669 -5.55112e-17
444 1 151.845 47.4374 -5.55112e-17
445 1 215.942 144.705 -5.55112e-17
446 1 197.574 184.264 -5.55112e-17
447 1 197.934 59.1995 -5.55112e-17
448 1 31.2577 186.551 -5.55112e-17
449 1 139.207 13.1387 -5.55112e-17
450 1 205.603 29.6173 -5.55112e-17
451 1 87.0053 133.744 -5.55112e-17
452 1 147.985 16.0012 -5.55112e-17
453 1 203.597 193.911 -5.55112e-17
454 1 113.791 41.4711 -5.55112e-17
455 1 113.637 153.548 -5.55112e-17
456 1 177.525 149.412 -5.55112e-17
457 1 179.108 106.821 -5.55112e-17
458 1 217.236 172.416 -5.55112e-17
459 1 149.751 198.041 -5.55112e-17
460 1 179.722 209.069 -5.55112e-17
461 1 197.935 63.7692 -5.55112e-17
462 1 137.853 210.119 -5.55112e-17
463 1 7.63994 74.2721 -5.55112e-17
464 1 25.5431 125.752 -5.55112e-17
465 1 59.4871 127.255 -5.55112e-17
466 1 152.971 175.725 -5.55112e-17
467 1 193.447 103.771 -5.55112e-17
468 1 65.5088 69.13 -5.55112e-17
469 1 32.9525 15.8025 -5.55112e-17
470 1 71.3672 81.1675 -5.55112e-17
471 1 17.4649 177.437 -5.55112e-17
472 1 79.0598 72.1487 -5.55112e-17
473 1 106.529 18.9951 -5.55112e-17
474 1 74.2771 187.911 -5.55112e-17
475 1 144.572 70.7959 -5.55112e-17
476 2 192.622 136.345 -5.55112e-17
477 1 153.835 168.431 -5.55112e-17
478 1 209.469 1.74487 -5.55112e-17
479 1 181.781 197.501 -5.55112e-17
480 1 44.6081 91.8936 -5.55112e-17
481 1 77.3314 209.941 -5.55112e-17
482 1 189.993 66.8439 -5.55112e-17
483 1 45.3802 148.221 -5.55112e-17
484 2 78.0976 98.508 -5.55112e-17
485 1 113.145 191.817 -5.55112e-17
486 1 74.732 40.9709 -5.55112e-17
487 1 90.6274 30.6246 -5.55112e-17
488 1 49.1198 39.0335 -5.55112e-17
489 1 107.915 125.437 -5.55112e-17
490 1 68.578 29.7628 -5.55112e-17
491 1 69.0311 72.8279 -5.55112e-17
492 1 104.509 16.8684 -5.55112e-17
493 1 78.1179 204.911 -5.55112e-17
494 1 111.874 69.8509 -5.55112e-17
495 1 3.44331 131.479 -5.55112e-17
496 2 132.43 170.737 -5.55112e-17
497 1 16.5762 144.61 -5.55112e-17
498 1 169.398 11.0053 -5.55112e-17
499 2 15.6385 14.8746 -5.55112e-17
500 1 21.9566 118.507 -5.55112e-17
501 2 181.778 10.3292 -5.55112e-17
502 2 162.495 42.8541 -5.55112e-17
503 1 88.1919 105.579 -5.55112e-17
504 1 159.518 215.798 -5.55112e-17
505 1 182.839 7.03464 -5.55112e-17
506 1 111.049 216.76 -5.55112e-17
507 1 107.077 105.265 -5.55112e-17
508 1 103.606 137.099 -5.55112e-17
509 2 144.844 31.2855 -5.55112e-17
510 2 74.1263 81.3693 -5.55112e-17
511 1 33.9047 42.7759 -5.55112e-17
512 2 116.656 76.8419 -5.55112e-17
513 1 175.561 159.501 -5.55112e-17
514 1 214.832 90.9178 -5.55112e-17
515 1 181.228 99.9061 -5.55112e-17
516 1 175.025 137.313 -5.55112e-17
517 1 156.775 31.6046 -5.55112e-17
518 2 12.0386 137.089 -5.55112e-17
519 1 114.139 33.8757 -5.55112e-17
520 2 62.5259 43.6187 -5.55112e-17
521 1 75.5257 190.321 -5.55112e-17
522 1 140.163 27.3013 -5.55112e-17
523 1 130.336 184.58 -5.55112e-17
524 1 103.866 0.418886 -5.55112e-17
525 1 138.109 202.462 -5.55112e-17
526 1 195.854 208.999 -5.55112e-17
527 1 104.931 54.5529 -5.55112e-17
528 1 166.41 192.065 -5.55112e-17
529 1 40.3824 78.8932 -5.55112e-17
530 1 186.81 33.5053 -5.55112e-17
531 1 45.2688 188.091 -5.55112e-17
532 1 115.572 67.0889 -5.55112e-17
533 1 211.097 157.659 -5.55112e-17
534 1 26.8134 60.4629 -5.55112e-17
535 1 186.516 95.032 -5.55112e-17
536 1 182.59 53.8885 -5.55112e-17
537 1 97.7955 23.9661 -5.55112e-17
538 1 26.0564 41.4948 -5.55112e-17
539 1 193.679 57.2112 -5.55112e-17
540 1 13.8051 51.1204 -5.55112e-17
541 1 158.709 14.5135 -5.55112e-17
542 1 148.836 178.51 -5.55112e-17
543 1 179.418 12.0161 -5.55112e-17
544 1 13.1065 65.936 -5.55112e-17
545 1 159.497 43.3953 -5.55112e-17
546 1 69.2692 79.7051 -5.55112e-17
547 1 51.7684 182.802 -5.55112e-17
548 1 214.387 135.988 -5.55112e-17
549 1 208.689 35.4273 -5.55112e-17
550 2 13.3837 169.717 -5.55112e-17
551 2 95.6643 35.2518 -5.55112e-17
552 2 54.1388 212.479 -5.55112e-17
553 1 61.243 67.0251 -5.55112e-17
554 1 188.366 58.0818 -5.55112e-17
555 2 171.627 207.106 -5.55112e-17
556 1 63.295 165.799 -5.55112e-17
557 1 165.851 14.4896 -5.55112e-17
558 1 66.001 4.89604 -5.55112e-17
559 1 200.685 53.7229 -5.55112e-17
560 1 173.933 108.253 -5.55112e-17
561 1 165.704 96.0384 -5.55112e-17
562 1 31.3598 199.977 -5.55112e-17
563 2 14.8804 214.751 -5.55112e-17
564 1 85.1154 188.968 -5.55112e-17
565 1 211.477 103.403 -5.55112e-17
566 1 25.4388 181.702 -5.55112e-17
567 1 25.6993 184.014 -5.55112e-17
568 1 193.735 87.5121 -5.55112e-17
569 1 89.3611 18.6042 -5.55112e-17
570 1 48.3222 148.597 -5.55112e-17
571 1 7.38179 24.1617 -5.55112e-17
572 1 78.418 102.138 -5.55112e-17
573 1 140.799 81.9344 -5.55112e-17
574 1 77.2789 160.756 -5.55112e-17
575 1 55.9295 10.4188 -5.55112e-17
576 1 77.8104 155.63 -5.55112e-17
577 1 56.2402 210.733 -5.55112e-17
578 1 183.377 37.3709 -5.55112e-17
579 1 42.9259 100.053 -5.55112e-17
580 1 142.947 187.336 -5.55112e-17
581 1 121.03 173.588 -5.55112e-17
582 1 72.4044 20.881 -5.55112e-17
583 1 168.644 24.1721 -5.55112e-17
584 2 151.171 108.344 -5.55112e-17
585 1 214.115 212.679 -5.55112e-17
586 1 43.6459 189.974 -5.55112e-17
587 1 218.733 81.3174 -5.55112e-17
588 1 174.978 125.127 -5.55112e-17
589 1 206.677 206.805 -5.55112e-17
590 1 143.703 65.9742 -5.55112e-17
591 1 175.22 7.09049 -5.55112e-17
592 1 123.853 53.2017 -5.55112e-17
593 1 71.0404 207.472 -5.55112e-17
594 1 41.1299 157.545 -5.55112e-17
595 1 68.2569 94.7721 -5.55112e-17
596 1 61.1684 163.675 -5.55112e-17
597 2 123.475 164.85 -5.55112e-17
598 1 2.09645 129.077 -5.55112e-17
599 1 19.391 50.8922 -5.55112e-17
600 1 93.6108 44.2309 -5.55112e-17
601 1 78.051 107.227 -5.55112e-17
602 1 72.4598 69.6401 -5.55112e-17
603 1 199.027 33.9059 -5.55112e-17
604 1 122.878 29.1858 -5.55112e-17
605 2 144.106 117.059 -5.55112e-17
606 1 143.861 52.9191 -5.55112e-17
607 2 49.3724 118.719 -5.55112e-17
608 1 3.98418 34.981 -5.55112e-17
609 1 131.247 121.286 -5.55112e-17
610 1 142.541 150.715 -5.55112e-17
611 1 92.2986 203.382 -5.55112e-17
612 1 108.821 51.0522 -5.55112e-17
613 1 105.567 171.76 -5.55112e-17
614 2 198.689 88.2009 -5.55112e-17
615 1 117.048 97.0146 -5.55112e-17
616 1 11.4183 153.065 -5.55112e-17
617 1 25.8587 53.334 -5.55112e-17
618 1 198.384 96.1105 -5.55112e-17
619 1 216.185 214.073 -5.55112e-17
620 1 34.8722 112.056 -5.55112e-17
621 1 174.844 129.935 -5.55112e-17
622 1 64.573 206.238 -5.55112e-17
623 1 190.205 41.1617 -5.55112e-17
624 1 33.1945 118.795 -5.55112e-17
625 1 104.169 131.938 -5.55112e-17
626 1 107.12 44.9499 -5.55112e-17
627 1 78.0628 32.5424 -5.55112e-17
628 1 204.898 128.322 -5.55112e-17
629 1 179.465 79.2207 -5.55112e-17
630 2 95.3926 90.6711 -5.55112e-17
631 1 206.243 202.083 -5.55112e-17
632 1 157.07 47.6702 -5.55112e-17
633 1 54.0049 33.0787 -5.55112e-17
634 1 27.2518 29.7291 -5.55112e-17
635 1 212.53 60.5272 -5.55112e-17
636 1 6.70534 128.545 -5.55112e-17
637 1 21.6805 70.2086 -5.55112e-17
638 1 110.009 15.3018 -5.55112e-17
639 2 169.759 81.8499 -5.55112e-17
640 1 52.5911 22.3974 -5.55112e-17
641 1 95.6495 15.2323 -5.55112e-17
642 1 54.2329 118.469 -5.55112e-17
643 2 66.3348 104.22 -5.55112e-17
644 1 67.4059 85.7764 -5.55112e-17
645 1 148.801 216.104 -5.55112e-17
646 2 184.06 202.085 -5.55112e-17
647 1 29.2712 49.1196 -5.55112e-17
648 1 28.1936 101.588 -5.55112e-17
649 2 149.468 41.0738 -5.55112e-17
650 1 212.717 29.6893 -5.55112e-17
651 1 186.145 99.8589 -5.55112e-17
652 1 46.0649 87.1753 -5.55112e-17
653 1 142.242 119.418 -5.55112e-17
654 1 177.091 185.517 -5.55112e-17
655 2 201.654 185.95 -5.55112e-17
656 1 185.069 204.417 -5.55112e-17
657 2 120.8 100.989 -5.55112e-17
658 1 207.69 131.607 -5.55112e-17
659 2 142.536 204.448 -5.55112e-17
660 1 131.056 38.332 -5.55112e-17
661 1 38.4286 38.8535 -5.55112e-17
662 1 4.0021 116.264 -5.55112e-17
663 1 7.92744 8.99696 -5.55112e-17
664 1 2.08743 37.2933 -5.55112e-17
665 1 208.798 202.067 -5.55112e-17
666 2 147.708 62.4855 -5.55112e-17
667 1 125.934 139.013 -5.55112e-17
668 2 52.3066 30.7315 -5.55112e-17
669 1 130.746 202.128 -5.55112e-17
670 1 17.6366 202.439 -5.55112e-17
671 2 162.515 66.6881 -5.55112e-17
672 1 29.2186 91.7844 -5.55112e-17
673 1 10.1618 118.031 -5.55112e-17
674 1 37.5116 46.014 -5.55112e-17
675 1 141.027 109.724 -5.55112e-17
676 1 7.67022 13.7734 -5.55112e-17
677 1 201.966 19.5551 -5.55112e-17
678 1 28.3415 137.99 -5.55112e-17
679 2 14.1836 34.1466 -5.55112e-17
680 1 209.278 177.417 -5.55112e-17
681 2 47.8399 98.8169 -5.55112e-17
682 1 125.428 1.2025 -5.55112e-17
683 1 200.841 83.9067 -5.55112e-17
684 1 35.7553 94.6223 -5.55112e-17
685 1 7.46678 218.47 -5.55112e-17
686 1 78.7805 143.628 -5.55112e-17
687 1 86.5548 23.4278 -5.55112e-17
688 1 7.79379 96.9471 -5.55112e-17
689 2 192.62 2.2532 -5.55112e-17
690 1 152.79 194.176 -5.55112e-17
691 1 147.485 29.7045 -5.55112e-17
692 1 71.1928 164.603 -5.55112e-17
693 1 89.3547 49.7183 -5.55112e-17
694 1 54.2463 110.198 -5.55112e-17
695 1 124.007 199.157 -5.55112e-17
696 1 66.0408 101.398 -5.55112e-17
697 1 153.897 81.8649 -5.55112e-17
698 1 29.5993 29.1089 -5.55112e-17
699 1 208.537 124.512 -5.55112e-17
700 1 101.596 72.5075 -5.55112e-17
701 1 200.528 46.6045 -5.55112e-17
702 1 209.425 215.312 -5.55112e-17
703 2 192.446 212.895 -5.55112e-17
704 1 181.929 126.074 -5.55112e-17
705 2 5.3929 15.6677 -5.55112e-17
706 1 71.422 49.6383 -5.55112e-17
707 1 7.64164 33.235 -5.55112e-17
708 1 62.0011 110.279 -5.55112e-17
709 1 193.683 37.4133 -5.55112e-17
710 1 152.982 104.543 -5.55112e-17
711 1 108.552 37.0891 -5.55112e-17
712 1 46.6504 38.6189 -5.55112e-17
713 1 144.634 119.868 -5.55112e-17
714 1 218.662 179.609 -5.55112e-17
715 1 116.144 48.6589 -5.55112e-17
716 1 215.383 3.68485 -5.55112e-17
717 1 69.6513 181.729 -5.55112e-17
718 1 13.7399 147.983 -5.55112e-17
719 2 193.229 169.261 -5.55112e-17
720 1 146.332 153.216 -5.55112e-17
721 1 36.2164 169.641 -5.55112e-17
722 1 14.7647 111.962 -5.55112e-17
723 2 176.756 119.627 -5.55112e-17
724 1 148.79 218.767 -5.55112e-17
725 1 18.6237 63.7467 -5.55112e-17
726 1 155.576 175.762 -5.55112e-17
727 1 171.706 48.4066 -5.55112e-17
728 2 2.50141 158.512 -5.55112e-17
729 1 187.967 144.542 -5.55112e-17
730 1 164.847 68.1397 -5.55112e-17
731 1 58.4665 17.0384 -5.55112e-17
732 1 52.536 96.2203 -5.55112e-17
733 1 170.879 139.388 -5.55112e-17
734 1 66.4026 73.282 -5.55112e-17
735 1 25.4202 94.5943 -5.55112e-17
736 2 0.167261 93.6658 -5.55112e-17
737 1 23.469 72.0506 -5.55112e-17
738 1 70.4371 162.524 -5.55112e-17
739 1 41.565 18.2834 -5.55112e-17
740 1 135.459 202.028 -5.55112e-17
741 2 108.53 92.8367 -5.55112e-17
742 1 181.927 46.1818 -5.55112e-17
743 1 26.8568 123.677 -5.55112e-17
744 2 105.598 97.9469 -5.55112e-17
745 1 151.627 74.0417 -5.55112e-17
746 1 125.263 194.459 -5.55112e-17
747 2 214.969 84.3525 -5.55112e-17
748 1 27.4499 2.67979 -5.55112e-17
749 1 48.9614 74.9005 -5.55112e-17
750 1 6.13115 81.8687 -5.55112e-17
751 1 162.538 78.386 -5.55112e-17
752 1 52.1722 131.24 -5.55112e-17
753 1 1.1548 155.887 -5.55112e-17
754 1 13.0818 37.0904 -5.55112e-17
755 1 56.4134 172.063 -5.55112e-17
756 2 116.596 205.736 -5.55112e-17
757 1 50.2352 7.43643 -5.55112e-17
758 1 31.4858 145.371 -5.55112e-17
759 1 138.403 138.31 -5.55112e-17
760 1 148.667 83.3655 -5.55112e-17
761 1 92.6076 92.9257 -5.55112e-17
762 1 70.047 132.674 -5.55112e-17
763 1 187.802 89.1564 -5.55112e-17
764 2 136.195 136.147 -5.55112e-17
765 1 127.902 127.941 -5.55112e-17
766 1 6.42052 6.66288 -5.55112e-17
767 1 163.407 168.122 -5.55112e-17
768 1 67.2413 33.8108 -5.55112e-17
769 1 45.3016 210.755 -5.55112e-17
770 2 63.7241 123.825 -5.55112e-17
771 1 123.415 142.99 -5.55112e-17
772 1 4.68057 58.934 -5.55112e-17
773 1 11.7943 11.6723 -5.55112e-17
774 1 110.087 60.5825 -5.55112e-17
775 1 190.253 134.155 -5.55112e-17
776 1 174.976 196.525 -5.55112e-17
777 1 130.272 109.114 -5.55112e-17
778 1 207.615 139.362 -5.55112e-17
779 1 66.8912 181.085 -5.55112e-17
780 1 76.6577 119.127 -5.55112e-17
781 1 14.0718 12.3545 -5.55112e-17
782 1 17.2279 113.249 -5.55112e-17
783 1 31.5849 214.1 -5.55112e-17
784 2 5.42424 125.83 -5.55112e-17
785 1 78.3463 151.132 -5.55112e-17
786 1 116.432 128.768 -5.55112e-17
787 1 85.8412 60.4938 -5.55112e-17
788 1 147.609 80.783 -5.55112e-17
789 2 100.194 185.894 -5.55112e-17
790 1 210.335 64.1029 -5.55112e-17
791 2 50.9235 149.704 -5.55112e-17
792 2 96.5043 100.38 -5.55112e-17
793 2 154.127 165.535 -5.55112e-17
794 1 145.303 204.206 -5.55112e-17
795 1 184.652 45.2197 -5.55112e-17
796 1 131.382 5.10293 -5.55112e-17
797 1 128.781 63.4652 -5.55112e-17
798 2 118.099 110.178 -5.55112e-17
799 2 144.29 180.288 -5.55112e-17
800 2 148.103 86.0378 -5.55112e-17
801 1 10.1094 20.7404 -5.55112e-17
802 1 217.548 154.914 -5.55112e-17
803 1 193.702 79.5135 -5.55112e-17
804 2 118.166 213.689 -5.55112e-17
805 1 135.661 175.053 -5.55112e-17
806 1 60.1537 134.952 -5.55112e-17
807 2 184.32 173.059 -5.55112e-17
808 1 101.696 154.596 -5.55112e-17
809 2 197.486 48.6774 -5.55112e-17
810 1 45.0602 45.5479 -5.55112e-17
811 1 90.2375 193.865 -5.55112e-17
812 1 17.6718 166.388 -5.55112e-17
813 2 135.822 145.081 -5.55112e-17
814 1 28.8883 145.477 -5.55112e-17
815 1 122.89 55.2468 -5.55112e-17
816 1 196.559 204.559 -5.55112e-17
817 1 35.9696 11.5936 -5.55112e-17
818 1 97.6736 16.7378 -5.55112e-17
819 1 48.9648 166.331 -5.55112e-17
820 1 19.4477 119.018 -5.55112e-17
821 1 160.059 198.974 -5.55112e-17
822 2 53.5188 50.7463 -5.55112e-17
823 2 143.132 106.783 -5.55112e-17
824 1 47.8562 143.151 -5.55112e-17
825 1 128.493 96.1583 -5.55112e-17
826 1 18.7685 80.473 -5.55112e-17
827 1 17.0672 102.625 -5.55112e-17
828 1 33.3599 47.0356 -5.55112e-17
829 1 124.561 57.3594 -5.55112e-17
830 1 98.0163 14.3129 -5.55112e-17
831 1 165.006 129.687 -5.55112e-17
832 1 60.7589 35.4091 -5.55112e-17
833 1 161.498 128.424 -5.55112e-17
834 1 92.3002 175.436 -5.55112e-17
835 1 29.2395 18.969 -5.55112e-17
836 1 201.496 35.1032 -5.55112e-17
837 1 175.917 14.3542 -5.55112e-17
838 1 121.572 120.371 -5.55112e-17
839 2 34.1866 145.539 -5.55112e-17
840 1 139.858 87.2042 -5.55112e-17
841 2 177.265 74.6835 -5.55112e-17
842 1 3.23691 92.7737 -5.55112e-17
843 2 32.8316 158.788 -5.55112e-17
844 1 90.5855 126.556 -5.55112e-17
845 1 92.4768 55.9337 -5.55112e-17
846 1 91.6571 180.984 -5.55112e-17
847 1 26.8307 37.2315 -5.55112e-17
848 1 167.091 68.774 -5.55112e-17
849 1 1.45035 121.779 -5.55112e-17
850 1 6.00357 181.316 -5.55112e-17
851 1 124.213 204.982 -5.55112e-17
852 1 133.827 206.49 -5.55112e-17
853 1 33.9091 85.3143 -5.55112e-17
854 1 116.447 153.813 -5.55112e-17
855 1 100.592 208.375 -5.55112e-17
856 1 161.49 208.251 -5.55112e-17