ITEM: TIMESTEP
0
ITEM: NUMBER OF ATOMS
7200
ITEM: BOX BOUNDS xy xz yz pp pp pp
0.0000000000000000e+00 2.1900000000000000e+02 0.0000000000000000e+00
0.0000000000000000e+00 2.1900000000000000e+02 0.0000000000000000e+00
-3.6499999999999999e-01 3.6499999999999999e-01 0.0000000000000000e+00
ITEM: ATOMS id type x y z
1 1 99.1275 15.773 -5.55112e-17
2 1 143.966 172.133 -5.55112e-17
3 1 191.001 74.3071 -5.55112e-17
4 1 50.1515 67.426 -5.55112e-17
5 1 70.8804 98.1517 -5.55112e-17
6 1 151.797 204.606 -5.55112e-17
7 1 11.2363 205.209 -5.55112e-17
8 2 149.574 158.661 -5.55112e-17
9 1 202.263 143.592 -5.55112e-17
10 2 10.8704 180.091 -5.55112e-17
11 1 115.567 25.3942 -5.55112e-17
12 1 28.9806 86.7118 -5.55112e-17
13 2 162.507 74.0749 -5.55112e-17
14 1 115.401 119.824 -5.55112e-17
15 1 26.2339 124.265 -5.55112e-17
16 2 155.624 33.9643 -5.55112e-17
17 1 104.447 9.44208 -5.55112e-17
18 2 56.6868 9.28209 -5.55112e-17
19 1 102.856 45.9895 -5.55112e-17
20 1 203.716 131.728 -5.55112e-17
21 1 40.8603 0.87308 -5.55112e-17
22 2 57.2834 159.065 -5.55112e-17
23 2 171.605 42.5327 -5.55112e-17
24 1 149.881 188.549 -5.55112e-17
25 1 32.2166 204.828 -5.55112e-17
26 2 48.7125 173.289 -5.55112e-17
27 1 215.368 90.427 -5.55112e-17
28 2 62.1288 103.334 -5.55112e-17
29 1 202.602 197.486 -5.55112e-17
30 1 111.537 147.095 -5.55112e-17
31 1 176.126 5.42096 -5.55112e-17
32 1 52.8191 207.107 -5.55112e-17
33 1 50.0877 151.597 -5.55112e-17
34 1 187.875 34.5792 -5.55112e-17
35 1 162.577 12.2895 -5.55112e-17
36 1 162.426 90.6734 -5.55112e-17
37 2 138.534 45.1489 -5.55112e-17
38 1 161.628 176.736 -5.55112e-17
39 1 115.776 96.6359 -5.55112e-17
40 1 180.85 194.509 -5.55112e-17
41 1 94.7294 26.004 -5.55112e-17
42 1 218.958 125.25 -5.55112e-17
43 1 3.69993 27.5498 -5.55112e-17
44 1 184.868 42.8922 -5.55112e-17
45 1 162.564 60.8245 -5.55112e-17
46 1 1.27442 183.397 -5.55112e-17
47 1 92.5534 195.586 -5.55112e-17
48 2 187.966 211.891 -5.55112e-17
49 1 38.0693 211.889 -5.55112e-17
50 1 78.8478 131.009 -5.55112e-17
51 1 197.556 44.5115 -5.55112e-17
52 1 169.244 189.55 -5.55112e-17
53 1 185.042 210.807 -5.55112e-17
54 1 117.026 128.664 -5.55112e-17
55 1 5.19774 123.877 -5.55112e-17
56 1 142.08 80.2614 -5.55112e-17
57 2 85.2864 9.09929 -5.55112e-17
58 1 42.7667 208.705 -5.55112e-17
59 1 193.889 38.2847 -5.55112e-17
60 2 148.34 75.0771 -5.55112e-17
61 2 10.9601 153.984 -5.55112e-17
62 1 15.9144 130.539 -5.55112e-17
63 1 167.109 34.0651 -5.55112e-17
64 1 156.97 142.518 -5.55112e-17
65 1 136.529 186.476 -5.55112e-17
66 1 56.9779 93.5118 -5.55112e-17
67 1 147.731 65.7298 -5.55112e-17
68 1 13.8556 51.2084 -5.55112e-17
69 1 88.4945 203.908 -5.55112e-17
70 1 68.3287 97.7405 -5.55112e-17
71 1 203.554 169.465 -5.55112e-17
72 1 126.251 187.897 -5.55112e-17
73 1 102.728 132.501 -5.55112e-17
74 1 32.9733 61.2313 -5.55112e-17
75 2 99.7221 31.9242 -5.55112e-17
76 1 70.0518 43.8531 -5.55112e-17
77 1 197.287 187.005 -5.55112e-17
78 1 57.4813 110.981 -5.55112e-17
79 2 170.616 45.7537 -5.55112e-17
80 1 40.1268 137.063 -5.55112e-17
81 1 143.256 87.1547 -5.55112e-17
82 1 93.8566 200.056 -5.55112e-17
83 2 102.479 218.537 -5.55112e-17
84 1 211.954 56.8452 -5.55112e-17
85 1 22.8697 196.839 -5.55112e-17
86 1 189.927 107.87 -5.55112e-17
87 1 117.933 120.882 -5.55112e-17
88 1 171.864 205.627 -5.55112e-17
89 2 23.5151 83.6266 -5.55112e-17
90 2 4.62762 118.617 -5.55112e-17
91 1 184.359 192.032 -5.55112e-17
92 2 187.986 206.447 -5.55112e-17
93 1 17.3656 6.8539 -5.55112e-17
94 2 59.9978 42.1421 -5.55112e-17
95 1 29.5076 91.8634 -5.55112e-17
96 1 170.199 97.7593 -5.55112e-17
97 1 47.1788 192.816 -5.55112e-17
98 1 102.547 5.20976 -5.55112e-17
99 1 112.202 182.083 -5.55112e-17
100 1 70.9598 83.633 -5.55112e-17
101 1 58.8723 56.5945 -5.55112e-17
102 1 217.279 156.738 -5.55112e-17
103 1 164.433 150.699 -5.55112e-17
104 1 190.173 91.6045 -5.55112e-17
105 1 152.027 59.6607 -5.55112e-17
106 1 70.1474 71.196 -5.55112e-17
107 2 189.02 217.47 -5.55112e-17
108 1 170.264 23.9742 -5.55112e-17
109 1 144.992 91.6585 -5.55112e-17
110 1 141.043 75.4312 -5.55112e-17
111 1 27.7691 64.4396 -5.55112e-17
112 1 117.381 116.079 -5.55112e-17
113 1 134.748 5.59221 -5.55112e-17
114 1 211.014 203.224 -5.55112e-17
115 1 4.67315 161.285 -5.55112e-17
116 2 179.081 171.645 -5.55112e-17
117 1 173.079 129.004 -5.55112e-17
118 1 31.6421 209.964 -5.55112e-17
119 2 94.2856 58.0759 -5.55112e-17
120 1 205.245 60.0926 -5.55112e-17
121 1 170.984 200.43 -5.55112e-17
122 1 23.8323 105.131 -5.55112e-17
123 1 141.239 142.545 -5.55112e-17
124 1 152.492 10.2209 -5.55112e-17
125 1 96.791 103.504 -5.55112e-17
126 1 38.5767 205.904 -5.55112e-17
127 1 39.3148 49.7208 -5.55112e-17
128 1 173.019 114.78 -5.55112e-17
129 1 9.89133 161.231 -5.55112e-17
130 1 113.405 98.0827 -5.55112e-17
131 1 193.216 88.2183 -5.55112e-17
132 2 218.413 2.0609 -5.55112e-17
133 1 111.275 144.524 -5.55112e-17
134 1 139.205 13.6266 -5.55112e-17
135 1 138.094 129.297 -5.55112e-17
136 1 19.3864 69.7133 -5.55112e-17
137 1 176.784 208.396 -5.55112e-17
138 1 129.288 16.6466 -5.55112e-17
139 1 211.221 121.221 -5.55112e-17
140 2 181.987 201.7 -5.55112e-17
141 1 122.335 102.042 -5.55112e-17
142 2 63.8903 124.063 -5.55112e-17
143 1 62.6574 105.959 -5.55112e-17
144 2 118.177 44.6032 -5.55112e-17
145 1 40.4368 210.303 -5.55112e-17
146 1 175.313 199.282 -5.55112e-17
147 1 164.631 159.662 -5.55112e-17
148 1 62.4136 141.671 -5.55112e-17
149 1 11.6877 21.3137 -5.55112e-17
150 1 135.952 37.9029 -5.55112e-17
151 1 53.2642 171.59 -5.55112e-17
152 1 193.727 138.045 -5.55112e-17
153 2 47.9755 198.731 -5.55112e-17
154 1 170.9 95.1967 -5.55112e-17
155 1 144.161 29.9583 -5.55112e-17
156 2 217.204 139.935 -5.55112e-17
157 1 191.645 61.849 -5.55112e-17
158 1 204.16 18.0146 -5.55112e-17
159 1 186.454 136.717 -5.55112e-17
160 1 29.1198 198.131 -5.55112e-17
161 1 66.5406 96.2847 -5.55112e-17
162 1 29.2124 168.184 -5.55112e-17
163 1 141.215 39.1819 -5.55112e-17
164 1 101.513 82.739 -5.55112e-17
165 1 11.5226 188.15 -5.55112e-17
166 2 179.526 73.2316 -5.55112e-17
167 1 141.934 3.57628 -5.55112e-17
168 1 196.507 131.374 -5.55112e-17
169 1 186.496 134.288 -5.55112e-17
170 1 65.3904 21.6502 -5.55112e-17
171 1 173.285 94.9091 -5.55112e-17
172 1 199.921 23.9687 -5.55112e-17
173 1 81.5461 200.918 -5.55112e-17
174 1 17.9801 135.025 -5.55112e-17
175 2 183.758 137.412 -5.55112e-17
176 1 63.6227 184.251 -5.55112e-17
177 2 210.538 82.2044 -5.55112e-17
178 1 78.8556 18.1592 -5.55112e-17
179 1 142.149 119.88 -5.55112e-17
180 1 205.955 70.1643 -5.55112e-17
181 1 211.771 116.979 -5.55112e-17
182 2 206.379 67.2001 -5.55112e-17
183 1 103.129 109.68 -5.55112e-17
184 1 218.08 132.359 -5.55112e-17
185 2 145.009 187.583 -5.55112e-17
186 2 140.655 115.066 -5.55112e-17
187 1 160.744 35.8255 -5.55112e-17
188 1 159.653 209.933 -5.55112e-17
189 1 111.366 28.3061 -5.55112e-17
190 2 146.378 213.191 -5.55112e-17
191 1 67.345 70.4818 -5.55112e-17
192 2 125.842 89.7035 -5.55112e-17
193 2 102.484 176.931 -5.55112e-17
194 1 150.929 69.9888 -5.55112e-17
195 1 6.7306 142.565 -5.55112e-17
196 1 21.6875 57.1637 -5.55112e-17
197 1 34.2206 63.2509 -5.55112e-17
198 2 49.0127 105.294 -5.55112e-17
199 1 168.851 73.7726 -5.55112e-17
200 1 73.1409 8.34816 -5.55112e-17
201 2 215.942 79.6167 -5.55112e-17
202 1 175.387 156.426 -5.55112e-17
203 1 83.9285 156.682 -5.55112e-17
204 1 124.794 152.146 -5.55112e-17
205 2 198.689 113.513 -5.55112e-17
206 1 118.524 89.8348 -5.55112e-17
207 1 109.878 129.708 -5.55112e-17
208 1 110.564 107.838 -5.55112e-17
209 1 130.368 11.7385 -5.55112e-17
210 1 181.801 80.4791 -5.55112e-17
211 2 187.779 152.978 -5.55112e-17
212 1 124.187 186.079 -5.55112e-17
213 1 146.679 31.7114 -5.55112e-17
214 1 145.198 36.6374 -5.55112e-17
215 1 114.686 203.651 -5.55112e-17
216 1 102.138 179.669 -5.55112e-17
217 1 118.011 138.909 -5.55112e-17
218 2 164.639 114.388 -5.55112e-17
219 1 93.7136 157.702 -5.55112e-17
220 2 105.222 163.097 -5.55112e-17
221 1 12.0655 139.341 -5.55112e-17
222 1 171.239 74.607 -5.55112e-17
223 1 23.6291 201.813 -5.55112e-17
224 2 209.248 6.68046 -5.55112e-17
225 1 119.773 124.924 -5.55112e-17
226 1 196.573 191.406 -5.55112e-17
227 2 32.3986 197.652 -5.55112e-17
228 1 120.285 168.384 -5.55112e-17
229 1 29.006 89.5401 -5.55112e-17
230 1 170.212 35.3839 -5.55112e-17
231 1 153.386 119.769 -5.55112e-17
232 1 4.63536 170.356 -5.55112e-17
233 1 62.4512 209.613 -5.55112e-17
234 1 133.837 39.6113 -5.55112e-17
235 1 180.506 152.555 -5.55112e-17
236 1 214.623 71.2775 -5.55112e-17
237 1 37.8592 140.747 -5.55112e-17
238 1 118.824 79.4345 -5.55112e-17
239 2 0.475715 158.555 -5.55112e-17
240 1 150.223 217.038 -5.55112e-17
241 2 72.0265 205.492 -5.55112e-17
242 2 35.1761 1.66015 -5.55112e-17
243 2 62.2099 14.9931 -5.55112e-17
244 1 32.471 117.361 -5.55112e-17
245 1 106.512 152.095 -5.55112e-17
246 1 170.938 181.114 -5.55112e-17
247 1 170.854 154.131 -5.55112e-17
248 1 121.679 54.8207 -5.55112e-17
249 1 208.959 189.192 -5.55112e-17
250 2 44.6261 29.015 -5.55112e-17
251 1 143.545 134.523 -5.55112e-17
252 1 1.38145 188.442 -5.55112e-17
253 1 122.106 113.843 -5.55112e-17
254 2 133.686 201.977 -5.55112e-17
255 1 185.694 9.51967 -5.55112e-17
256 1 92.7703 7.10867 -5.55112e-17
257 1 203.969 185.268 -5.55112e-17
258 2 94.1401 30.9303 -5.55112e-17
259 1 9.48438 128.058 -5.55112e-17
260 1 124.084 129.234 -5.55112e-17
261 1 153.207 171.39 -5.55112e-17
262 1 46.0313 118.986 -5.55112e-17
263 1 0.821161 130.552 -5.55112e-17
264 1 180.219 102.377 -5.55112e-17
265 1 7.27382 30.3776 -5.55112e-17
266 1 192.147 40.041 -5.55112e-17
267 1 132.564 109.403 -5.55112e-17
268 1 54.5418 30.1565 -5.55112e-17
269 1 46.0111 153.338 -5.55112e-17
270 1 77.9277 79.8293 -5.55112e-17
271 1 159.639 21.0624 -5.55112e-17
272 1 193.766 165.723 -5.55112e-17
273 1 78.1156 65.437 -5.55112e-17
274 2 112.333 110.362 -5.55112e-17
275 1 27.8091 177.036 -5.55112e-17
276 2 7.22408 33.7335 -5.55112e-17
277 2 169.329 50.3287 -5.55112e-17
278 1 92.5716 204.945 -5.55112e-17
279 2 68.6732 73.6613 -5.55112e-17
280 1 195.81 49.0008 -5.55112e-17
281 1 126.223 177.274 -5.55112e-17
282 1 115.759 152.606 -5.55112e-17
283 1 109.595 167.152 -5.55112e-17
284 1 137.324 205.12 -5.55112e-17
285 1 213.236 171.032 -5.55112e-17
286 2 130.901 160.632 -5.55112e-17
287 1 194.492 198.952 -5.55112e-17
288 1 166.827 66.3579 -5.55112e-17
289 1 92.9678 123.677 -5.55112e-17
290 1 48.1011 163.147 -5.55112e-17
291 1 97.1394 166.675 -5.55112e-17
292 2 75.4237 164.868 -5.55112e-17
293 2 198.385 137.601 -5.55112e-17
294 1 139.418 50.8373 -5.55112e-17
295 1 122.095 30.9914 -5.55112e-17
296 1 35.0558 14.2953 -5.55112e-17
297 1 180.083 168.932 -5.55112e-17
298 1 188.261 16.3207 -5.55112e-17
299 1 106.235 123.367 -5.55112e-17
300 2 42.028 167.939 -5.55112e-17
301 1 218.925 15.409 -5.55112e-17
302 1 114.496 128.72 -5.55112e-17
303 2 140.797 33.9754 -5.55112e-17
304 2 180.583 126.738 -5.55112e-17
305 1 135.785 161.061 -5.55112e-17
306 1 103.179 32.2404 -5.55112e-17
307 1 83.4455 167.344 -5.55112e-17
308 1 75.3772 55.1154 -5.55112e-17
309 2 103.229 159.666 -5.55112e-17
310 1 18.8025 72.1946 -5.55112e-17
311 1 81.5676 89.0233 -5.55112e-17
312 1 109.587 81.0844 -5.55112e-17
313 2 169.614 9.0514 -5.55112e-17
314 1 119.289 21.7644 -5.55112e-17
315 1 11.0776 157.055 -5.55112e-17
316 1 123.11 208.644 -5.55112e-17
317 1 213.542 94.7435 -5.55112e-17
318 1 148.886 191.119 -5.55112e-17
319 1 74.4578 204.173 -5.55112e-17
320 1 164.926 169.837 -5.55112e-17
321 1 13.6783 89.7471 -5.55112e-17
322 1 97.9047 66.0488 -5.55112e-17
323 1 44.2916 186.319 -5.55112e-17
324 1 109.775 20.5583 -5.55112e-17
325 1 158.808 205.555 -5.55112e-17
326 1 38.4557 105.802 -5.55112e-17
327 2 150.857 15.5129 -5.55112e-17
328 1 107.985 200.582 -5.55112e-17
329 2 1.71713 56.9825 -5.55112e-17
330 1 198.827 175.533 -5.55112e-17
331 1 214.448 32.274 -5.55112e-17
332 2 167.79 42.8798 -5.55112e-17
333 1 24.3045 29.0014 -5.55112e-17
334 1 109.305 10.5271 -5.55112e-17
335 1 17.2746 27.2129 -5.55112e-17
336 1 207.78 118.414 -5.55112e-17
337 1 191.433 9.53762 -5.55112e-17
338 1 157.96 19.2011 -5.55112e-17
339 1 190.223 160.983 -5.55112e-17
340 1 139.835 93.1459 -5.55112e-17
341 1 137.314 2.12668 -5.55112e-17
342 1 201.243 132.975 -5.55112e-17
343 1 179.951 68.319 -5.55112e-17
344 1 10.9985 24.5998 -5.55112e-17
345 1 74.1226 20.2461 -5.55112e-17
346 1 201.938 95.3738 -5.55112e-17
347 1 218.653 54.7774 -5.55112e-17
348 1 134.033 211.923 -5.55112e-17
349 1 60.9248 96.348 -5.55112e-17
350 2 109.2 177.665 -5.55112e-17
351 1 186.133 17.7849 -5.55112e-17
352 1 137.061 179.075 -5.55112e-17
353 1 62.7502 1.90923 -5.55112e-17
354 1 151.946 211.73 -5.55112e-17
355 1 150.681 155.861 -5.55112e-17
356 1 204.409 187.758 -5.55112e-17
357 1 182.012 117.487 -5.55112e-17
358 1 9.78595 165.836 -5.55112e-17
359 1 10.1649 137.614 -5.55112e-17
360 1 27.4656 128.671 -5.55112e-17
361 1 138.198 210.672 -5.55112e-17
362 1 218.43 7.29285 -5.55112e-17
363 1 1.5134 173.591 -5.55112e-17
364 2 212.998 114.484 -5.55112e-17
365 1 96.587 70.666 -5.55112e-17
366 1 128.944 113.339 -5.55112e-17
367 1 10.1651 76.2237 -5.55112e-17
368 1 212.536 99.7666 -5.55112e-17
369 2 75.3754 185.018 -5.55112e-17
370 1 73.1648 155.208 -5.55112e-17
371 1 60.0395 213.586 -5.55112e-17
372 2 193.166 58.727 -5.55112e-17
373 2 126.506 15.0637 -5.55112e-17
374 1 159.018 28.9095 -5.55112e-17
375 1 147.369 181.948 -5.55112e-17
376 1 30.3582 214.932 -5.55112e-17
377 1 182.724 2.11924 -5.55112e-17
378 1 59.6978 121.464 -5.55112e-17
379 1 33.1041 39.8615 -5.55112e-17
380 1 167.501 203.997 -5.55112e-17
381 1 174.143 107.296 -5.55112e-17
382 1 111.936 218.246 -5.55112e-17
383 1 73.8009 99.7018 -5.55112e-17
384 1 58.4357 74.357 -5.55112e-17
385 1 94.822 78.9907 -5.55112e-17
386 2 94.7921 21.3863 -5.55112e-17
387 1 191.2 206.182 -5.55112e-17
388 1 67.207 146.561 -5.55112e-17
389 1 89.4502 44.5629 -5.55112e-17
390 2 140.479 164.071 -5.55112e-17
391 2 195.381 168.357 -5.55112e-17
392 1 147.154 195.871 -5.55112e-17
393 1 92.5902 121.177 -5.55112e-17
394 1 87.5496 112.589 -5.55112e-17
395 1 19.3553 210.642 -5.55112e-17
396 1 95.9075 176.61 -5.55112e-17
397 1 185.781 23.3261 -5.55112e-17
398 1 9.81641 86.6743 -5.55112e-17
399 1 150.115 209.539 -5.55112e-17
400 1 90.9575 132.978 -5.55112e-17
401 1 47.039 201.485 -5.55112e-17
402 2 48.5647 117.922 -5.55112e-17
403 1 21.566 138.383 -5.55112e-17
404 1 191.716 115.476 -5.55112e-17
405 1 146.249 122.388 -5.55112e-17
406 1 199.432 42.0582 -5.55112e-17
407 2 8.67326 41.0304 -5.55112e-17
408 1 5.57477 194.953 -5.55112e-17
409 1 67.9351 128.429 -5.55112e-17
410 1 51.801 10.7191 -5.55112e-17
411 1 201.809 85.9479 -5.55112e-17
412 1 101.969 102.745 -5.55112e-17
413 1 89.8772 142.631 -5.55112e-17
414 1 35.3378 38.2181 -5.55112e-17
415 1 155.041 115.876 -5.55112e-17
416 1 18.9992 90.059 -5.55112e-17
417 1 182.179 77.923 -5.55112e-17
418 2 202.743 10.9676 -5.55112e-17
419 1 143.069 209.179 -5.55112e-17
420 2 164.957 80.8172 -5.55112e-17
421 1 148.392 120.829 -5.55112e-17
422 1 140.852 214.826 -5.55112e-17
423 2 201 130.109 -5.55112e-17
424 1 168.387 129.228 -5.55112e-17
425 1 99.806 212.104 -5.55112e-17
426 1 208.621 147.603 -5.55112e-17
427 1 174.632 35.7744 -5.55112e-17
428 1 95.7187 114.289 -5.55112e-17
429 1 170.567 125.35 -5.55112e-17
430 1 203.919 5.71477 -5.55112e-17
431 1 181.583 182.768 -5.55112e-17
432 1 79.4286 32.2376 -5.55112e-17
433 1 10.079 196.407 -5.55112e-17
434 1 102.413 97.7932 -5.55112e-17
435 1 135.076 150.965 -5.55112e-17
436 1 75.9483 48.4737 -5.55112e-17
437 1 181.479 135.83 -5.55112e-17
438 2 89.9527 64.5658 -5.55112e-17
439 1 32.7708 34.2205 -5.55112e-17
440 1 196.895 42.0628 -5.55112e-17
441 1 125.442 131.297 -5.55112e-17
442 1 117.097 3.60331 -5.55112e-17
443 1 160.912 82.98 -5.55112e-17
444 1 145.178 46.4887 -5.55112e-17
445 1 176.19 12.7565 -5.55112e-17
446 1 149.477 134.338 -5.55112e-17
447 1 16.989 20.0892 -5.55112e-17
448 1 47.4022 29.6295 -5.55112e-17
449 1 92.8486 211.975 -5.55112e-17
450 1 14.749 28.0306 -5.55112e-17
451 1 183.053 164.582 -5.55112e-17
452 1 116.454 205.766 -5.55112e-17
453 1 174.457 137.949 -5.55112e-17
454 1 8.35268 153.45 -5.55112e-17
455 1 202.118 7.84018 -5.55112e-17
456 1 206.668 198.98 -5.55112e-17
457 1 10.3085 84.2592 -5.55112e-17
458 1 134.968 22.184 -5.55112e-17
459 1 85.0412 213.906 -5.55112e-17
460 1 121.662 57.2656 -5.55112e-17
461 1 92.1954 168.185 -5.55112e-17
462 1 6.42426 36.6329 -5.55112e-17
463 1 192.746 11.711 -5.55112e-17
464 1 130.423 30.8883 -5.55112e-17
465 1 123.792 215.445 -5.55112e-17
466 1 26.1058 103.483 -5.55112e-17
467 1 29.6031 0.841528 -5.55112e-17
468 1 183.359 146.437 -5.55112e-17
469 1 120.258 157.911 -5.55112e-17
470 1 102.954 64.1264 -5.55112e-17
471 1 184.345 160.029 -5.55112e-17
472 1 61.1719 29.831 -5.55112e-17
473 1 121.886 159.297 -5.55112e-17
474 1 122.574 73.4698 -5.55112e-17
475 1 47.4765 145.785 -5.55112e-17
476 2 29.0937 21.8298 -5.55112e-17
477 1 205.788 28.0699 -5.55112e-17
478 1 211.954 157.501 -5.55112e-17
479 1 59.1435 154.053 -5.55112e-17
480 1 70.7768 56.4749 -5.55112e-17
481 1 28.9909 149.631 -5.55112e-17
482 1 143.839 5.49205 -5.55112e-17
483 1 132.984 146.599 -5.55112e-17
484 2 36.8549 22.4352 -5.55112e-17
485 1 23.258 176.586 -5.55112e-17
486 1 20.5364 102.009 -5.55112e-17
487 1 80.6546 205.899 -5.55112e-17
488 1 43.1601 59.6742 -5.55112e-17
489 1 190.752 44.7348 -5.55112e-17
490 1 66.7235 16.791 -5.55112e-17
491 1 127.147 102.191 -5.55112e-17
492 1 65.3834 148.271 -5.55112e-17
493 1 162.011 188.64 -5.55112e-17
494 1 107.281 218.55 -5.55112e-17
495 1 87.4957 213.493 -5.55112e-17
496 2 118.947 217.619 -5.55112e-17
497 1 183.814 216.623 -5.55112e-17
498 1 73.5284 172.992 -5.55112e-17
499 2 95.5443 8.11727 -5.55112e-17
500 1 144.302 179.256 -5.55112e-17
501 2 142.609 0.745348 -5.55112e-17
502 2 117.998 190.661 -5.55112e-17
503 1 164.932 209.381 -5.55112e-17
504 1 167.089 168.815 -5.55112e-17
505 1 8.40882 51.8376 -5.55112e-17
506 1 114.258 180.862 -5.55112e-17
507 1 88.1466 131.93 -5.55112e-17
508 1 209.982 193.847 -5.55112e-17
509 2 34.8583 94.9375 -5.55112e-17
510 2 104.476 181.719 -5.55112e-17
511 1 133.017 120.786 -5.55112e-17
512 2 47.075 124.209 -5.55112e-17
513 1 57.6342 185.498 -5.55112e-17
514 1 53.6843 48.6053 -5.55112e-17
515 1 69.3504 34.6932 -5.55112e-17
516 1 28.4473 135.238 -5.55112e-17
517 1 127.543 172.115 -5.55112e-17
518 2 123.319 154.422 -5.55112e-17
519 1 198.204 58.3635 -5.55112e-17
520 2 9.11152 105.779 -5.55112e-17
521 1 182.722 100.522 -5.55112e-17
522 1 46.1747 203.766 -5.55112e-17
523 1 205.478 152.48 -5.55112e-17
524 1 28.1739 215.82 -5.55112e-17
525 1 78.8572 155.873 -5.55112e-17
526 1 142.928 27.7774 -5.55112e-17
527 1 25.7013 54.0636 -5.55112e-17
528 1 93.0581 47.4644 -5.55112e-17
529 1 91.8182 140.647 -5.55112e-17
530 1 129.238 76.5734 -5.55112e-17
531 1 128.403 199.619 -5.55112e-17
532 1 152.339 218.398 -5.55112e-17
533 1 73.982 95.0031 -5.55112e-17
534 1 160.116 186.693 -5.55112e-17
535 1 143.499 192.69 -5.55112e-17
536 1 133.907 67.6594 -5.55112e-17
537 1 214.747 193.197 -5.55112e-17
538 1 128.483 89.1034 -5.55112e-17
539 1 28.4363 36.0627 -5.55112e-17
540 1 132.191 6.37651 -5.55112e-17
541 1 138.884 191.238 -5.55112e-17
542 1 77.3871 53.2556 -5.55112e-17
543 1 84.6725 18.7049 -5.55112e-17
544 1 158.808 23.2852 -5.55112e-17
545 1 207.274 165.973 -5.55112e-17
546 1 195.022 173.066 -5.55112e-17
547 1 198.912 151.592 -5.55112e-17
548 1 23.5468 164.069 -5.55112e-17
549 1 5.09825 46.9906 -5.55112e-17
550 2 161.203 125.52 -5.55112e-17
551 2 118.639 57.6961 -5.55112e-17
552 2 99.2224 28.3039 -5.55112e-17
553 1 139.043 53.3639 -5.55112e-17
554 1 180.815 92.7018 -5.55112e-17
555 2 194.132 113.417 -5.55112e-17
556 1 129.817 14.4171 -5.55112e-17
557 1 83.3745 90.836 -5.55112e-17
558 1 177.111 32.1729 -5.55112e-17
559 1 215.881 208.603 -5.55112e-17
560 1 181.676 16.4616 -5.55112e-17
561 1 205.862 159.894 -5.55112e-17
562 1 184.488 202.802 -5.55112e-17
563 2 215.009 162.068 -5.55112e-17
564 1 17.5933 176.439 -5.55112e-17
565 1 140.444 161.159 -5.55112e-17
566 1 84.8054 100.055 -5.55112e-17
567 1 106.831 77.0762 -5.55112e-17
568 1 214.806 141.645 -5.55112e-17
569 1 32.9104 180.12 -5.55112e-17
570 1 62.4966 129.068 -5.55112e-17
571 1 185.74 126.256 -5.55112e-17
572 1 98.5978 37.2259 -5.55112e-17
573 1 165.438 164.611 -5.55112e-17
574 1 151.974 160.57 -5.55112e-17
575 1 17.4955 77.5806 -5.55112e-17
576 1 158.576 96.2262 -5.55112e-17
577 1 190.812 13.1077 -5.55112e-17
578 1 94.5059 197.437 -5.55112e-17
579 1 212.188 49.7484 -5.55112e-17
580 1 41.533 29.7522 -5.55112e-17
581 1 82.8172 182.074 -5.55112e-17
582 1 16.6918 9.6278 -5.55112e-17
583 1 18.5428 22.0018 -5.55112e-17
584 2 9.23941 0.673754 -5.55112e-17
585 1 204.637 124.446 -5.55112e-17
586 1 138.989 83.9821 -5.55112e-17
587 1 169.492 218.652 -5.55112e-17
588 1 78.235 116.259 -5.55112e-17
589 1 145.587 200.152 -5.55112e-17
590 1 88.1639 8.51784 -5.55112e-17
591 1 198.635 200.67 -5.55112e-17
592 1 31.8776 93.3708 -5.55112e-17
593 1 198.192 169.047 -5.55112e-17
594 1 40.1595 198.019 -5.55112e-17
595 1 82.3096 74.0381 -5.55112e-17
596 1 55.5511 0.62458 -5.55112e-17
597 2 23.7701 24.0751 -5.55112e-17
598 1 11.7044 8.15444 -5.55112e-17
599 1 43.4684 16.1992 -5.55112e-17
600 1 190.215 26.9175 -5.55112e-17
601 1 57.7273 138.13 -5.55112e-17
602 1 144.892 52.3322 -5.55112e-17
603 1 44.1688 154.806 -5.55112e-17
604 1 66.1949 154.05 -5.55112e-17
605 2 71.7697 124.673 -5.55112e-17
606 1 181.781 192.044 -5.55112e-17
607 2 158.826 184.059 -5.55112e-17
608 1 191.08 179.595 -5.55112e-17
609 1 200.56 146.281 -5.55112e-17
610 1 169.749 156.2 -5.55112e-17
611 1 76.441 161.937 -5.55112e-17
612 1 3.41499 59.871 -5.55112e-17
613 1 148.577 142.064 -5.55112e-17
614 2 200.413 195.447 -5.55112e-17
615 1 89.6624 183.698 -5.55112e-17
616 1 157.606 59.3765 -5.55112e-17
617 1 83.5555 0.0431384 -5.55112e-17
618 1 194.08 193.985 -5.55112e-17
619 1 132.833 149.377 -5.55112e-17
620 1 181.038 12.0425 -5.55112e-17
621 1 93.3492 60.689 -5.55112e-17
622 1 113.79 208.875 -5.55112e-17
623 1 201.493 164.628 -5.55112e-17
624 1 70.834 15.451 -5.55112e-17
625 1 159.167 0.306829 -5.55112e-17
626 1 32.0988 207.624 -5.55112e-17
627 1 103.32 135.061 -5.55112e-17
628 1 67.0296 34.3303 -5.55112e-17
629 1 12.0315 88.0009 -5.55112e-17
630 2 106.01 60.7657 -5.55112e-17
631 1 2.11999 119.847 -5.55112e-17
632 1 198.984 85.4031 -5.55112e-17
633 1 44.9946 183.807 -5.55112e-17
634 1 208.232 3.65392 -5.55112e-17
635 1 91.1388 175.76 -5.55112e-17
636 1 175.809 57.3967 -5.55112e-17
637 1 194.298 70.6543 -5.55112e-17
638 1 29.7048 76.4432 -5.55112e-17
639 2 51.9414 53.1714 -5.55112e-17
640 1 121.678 166.183 -5.55112e-17
641 1 140.167 106.684 -5.55112e-17
642 1 78.0656 15.8034 -5.55112e-17
643 2 163.925 24.3065 -5.55112e-17
644 1 61.5299 12.3412 -5.55112e-17
645 1 77.1019 154.412 -5.55112e-17
646 2 16.9408 92.4536 -5.55112e-17
647 1 167.515 28.2884 -5.55112e-17
648 1 202.999 35.107 -5.55112e-17
649 2 102.974 155.87 -5.55112e-17
650 1 4.22453 115.861 -5.55112e-17
651 1 212.672 211.86 -5.55112e-17
652 1 208.475 139.439 -5.55112e-17
653 1 15.4913 133.189 -5.55112e-17
654 1 191.295 215.919 -5.55112e-17
655 2 29.6868 144.401 -5.55112e-17
656 1 80.619 162.561 -5.55112e-17
657 2 127.203 205.125 -5.55112e-17
658 1 214.163 61.0246 -5.55112e-17
659 2 188.28 132.295 -5.55112e-17
660 1 35.6647 40.8037 -5.55112e-17
661 1 156.676 152.183 -5.55112e-17
662 1 79.3684 133.707 -5.55112e-17
663 1 87.6363 46.4428 -5.55112e-17
664 1 88.2907 66.7917 -5.55112e-17
665 1 136.381 66.8271 -5.55112e-17
666 2 118.782 34.8338 -5.55112e-17
667 1 164.779 89.6053 -5.55112e-17
668 2 120.701 121.871 -5.55112e-17
669 1 69.299 218.456 -5.55112e-17
670 1 164.676 172.25 -5.55112e-17
671 2 100.995 149.85 -5.55112e-17
672 1 124.97 17.3248 -5.55112e-17
673 1 47.5583 80.9981 -5.55112e-17
674 1 211.017 139.106 -5.55112e-17
675 1 151.792 30.2707 -5.55112e-17
676 1 151.413 79.5018 -5.55112e-17
677 1 198.249 146.558 -5.55112e-17
678 1 174.118 164.197 -5.55112e-17
679 2 172.702 214.256 -5.55112e-17
680 1 23.0357 76.1471 -5.55112e-17
681 2 202.245 42.9797 -5.55112e-17
682 1 68.5609 172.525 -5.55112e-17
683 1 67.4353 197.568 -5.55112e-17
684 1 121.268 199.428 -5.55112e-17
685 1 137.401 49.318 -5.55112e-17
686 1 110.311 102.127 -5.55112e-17
687 1 200.945 162.284 -5.55112e-17
688 1 211.708 107.056 -5.55112e-17
689 2 71.5631 51.4277 -5.55112e-17
690 1 83.373 114.051 -5.55112e-17
691 1 41.8902 93.8873 -5.55112e-17
692 1 91.3811 138.201 -5.55112e-17
693 1 119.733 41.8572 -5.55112e-17
694 1 21.3957 178.588 -5.55112e-17
695 1 45.2877 108.345 -5.55112e-17
696 1 101.198 118.527 -5.55112e-17
697 1 159.552 161.703 -5.55112e-17
698 1 111.602 79.1342 -5.55112e-17
699 1 211.843 123.859 -5.55112e-17
700 1 36.559 207.259 -5.55112e-17
701 1 59.3553 94.1297 -5.55112e-17
702 1 24.5524 119.799 -5.55112e-17
703 2 32.1414 129.794 -5.55112e-17
704 1 139.274 193.765 -5.55112e-17
705 2 124.955 144.164 -5.55112e-17
706 1 35.9037 157.397 -5.55112e-17
707 1 129.607 57.0139 -5.55112e-17
708 1 96.7719 119.732 -5.55112e-17
709 1 47.5299 150.975 -5.55112e-17
710 1 18.8074 81.5365 -5.55112e-17
711 1 92.5348 165.471 -5.55112e-17
712 1 215.851 112.374 -5.55112e-17
713 1 110.994 212.736 -5.55112e-17
714 1 144.678 71.4391 -5.55112e-17
715 1 6.7632 209.984 -5.55112e-17
716 1 99.9888 162.985 -5.55112e-17
717 1 114.029 165.969 -5.55112e-17
718 1 169.106 93.2734 -5.55112e-17
719 2 62.9536 31.9427 -5.55112e-17
720 1 131.666 50.9343 -5.55112e-17
721 1 163.094 186.373 -5.55112e-17
722 1 82.5395 86.2624 -5.55112e-17
723 2 0.542943 122.478 -5.55112e-17
724 1 38.9125 190.903 -5.55112e-17
725 1 24.8004 78.5048 -5.55112e-17
726 1 132.312 81.5234 -5.55112e-17
727 1 70.7024 116.341 -5.55112e-17
728 2 172.142 92.2581 -5.55112e-17
729 1 122.669 211.241 -5.55112e-17
730 1 65.6228 201.859 -5.55112e-17
731 1 76.5821 41.3685 -5.55112e-17
732 1 89.9054 13.4852 -5.55112e-17
733 1 144.185 63.4122 -5.55112e-17
734 1 92.0872 56.2367 -5.55112e-17
735 1 10.1406 26.9886 -5.55112e-17
736 2 173.652 73.0274 -5.55112e-17
737 1 100.834 90.1445 -5.55112e-17
738 1 2.13996 148.645 -5.55112e-17
739 1 174.781 185.035 -5.55112e-17
740 1 84.4979 102.576 -5.55112e-17
741 2 4.3288 9.40149 -5.55112e-17
742 1 36.457 97.7762 -5.55112e-17
743 1 117.637 20.0085 -5.55112e-17
744 2 4.94876 137.05 -5.55112e-17
745 1 83.8578 31.0561 -5.55112e-17
746 1 57.6329 194.061 -5.55112e-17
747 2 38.695 95.2897 -5.55112e-17
748 1 154.699 52.0323 -5.55112e-17
749 1 13.4368 155.87 -5.55112e-17
750 1 19.4866 139.403 -5.55112e-17
751 1 124.026 55.9827 -5.55112e-17
752 1 155.611 194.773 -5.55112e-17
753 1 110.833 186.688 -5.55112e-17
754 1 33.1233 37.3851 -5.55112e-17
755 1 125.884 92.6784 -5.55112e-17
756 2 175.438 24.7336 -5.55112e-17
757 1 10.1411 189.98 -5.55112e-17
758 1 28.3813 126.093 -5.55112e-17
759 1 158.902 163.942 -5.55112e-17
760 1 167.785 147.495 -5.55112e-17
761 1 58.9265 29.1271 -5.55112e-17
762 1 169.48 40.7254 -5.55112e-17
763 1 38.9242 120.087 -5.55112e-17
764 2 130.12 135.599 -5.55112e-17
765 1 218.812 70.8472 -5.55112e-17
766 1 43.2369 65.3924 -5.55112e-17
767 1 198.134 189.34 -5.55112e-17
768 1 6.90313 10.8387 -5.55112e-17
769 1 61.0856 118.154 -5.55112e-17
770 2 42.0894 90.9238 -5.55112e-17
771 1 184.363 166.928 -5.55112e-17
772 1 89.5062 110.883 -5.55112e-17
773 1 94.1762 172.301 -5.55112e-17
774 1 162.847 155.572 -5.55112e-17
775 1 148.428 207.526 -5.55112e-17
776 1 81.2526 203.378 -5.55112e-17
777 1 189.141 36.8759 -5.55112e-17
778 1 24.1444 183.632 -5.55112e-17
779 1 206.662 149.681 -5.55112e-17
780 1 142.711 146.95 -5.55112e-17
781 1 17.6931 137.626 -5.55112e-17
782 1 3.38776 80.0204 -5.55112e-17
783 1 144.806 195.08 -5.55112e-17
784 2 158.688 81.1618 -5.55112e-17
785 1 127.288 160.443 -5.55112e-17
786 1 72.7138 178.201 -5.55112e-17
787 1 15.2124 215.986 -5.55112e-17
788 1 127.833 61.7652 -5.55112e-17
789 2 205.319 97.059 -5.55112e-17
790 1 80.2097 78.4355 -5.55112e-17
791 2 130.986 177.965 -5.55112e-17
792 2 31.0891 84.1947 -5.55112e-17
793 2 104.8 102.378 -5.55112e-17
794 1 38.8954 61.9709 -5.55112e-17
795 1 151.14 32.805 -5.55112e-17
796 1 173.886 40.6667 -5.55112e-17
797 1 148.775 113.447 -5.55112e-17
798 2 42.8861 38.1797 -5.55112e-17
799 2 43.9184 98.9133 -5.55112e-17
800 2 124.012 22.7755 -5.55112e-17
801 1 175.247 70.6179 -5.55112e-17
802 1 38.6668 46.9812 -5.55112e-17
803 1 154.622 159.857 -5.55112e-17
804 2 111.475 141.229 -5.55112e-17
805 1 186.819 100.222 -5.55112e-17
806 1 64.8001 178.33 -5.55112e-17
807 2 146.685 1.05246 -5.55112e-17
808 1 197.211 74.9041 -5.55112e-17
809 2 185.753 53.8285 -5.55112e-17
810 1 87.4842 19.2064 -5.55112e-17
811 1 10.1989 73.6804 -5.55112e-17
812 1 200.145 12.1836 -5.55112e-17
813 2 87.388 185.364 -5.55112e-17
814 1 99.9563 78.1425 -5.55112e-17
815 1 42.7022 211.496 -5.55112e-17
816 1 8.25853 216.593 -5.55112e-17
817 1 213.732 149.219 -5.55112e-17
818 1 139.516 179.459 -5.55112e-17
819 1 113.492 162.368 -5.55112e-17
820 1 141.765 204.257 -5.55112e-17
821 1 58.5966 156.317 -5.55112e-17
822 2 13.0797 197.329 -5.55112e-17
823 2 196.642 99.1572 -5.55112e-17
824 1 108.564 88.4195 -5.55112e-17
825 1 26.3573 31.7115 -5.55112e-17
826 1 33.0738 164.847 -5.55112e-17
827 1 216.449 50.5047 -5.55112e-17
828 1 35.9291 183.618 -5.55112e-17
829 1 6.96542 69.3638 -5.55112e-17
830 1 10.9415 58.4989 -5.55112e-17
831 1 208.18 168.37 -5.55112e-17
832 1 26.4107 90.677 -5.55112e-17
833 1 191.937 71.7452 -5.55112e-17
834 1 88.6573 193.589 -5.55112e-17
835 1 40.1074 184.917 -5.55112e-17
836 1 206.879 78.0765 -5.55112e-17
837 1 9.4396 100.454 -5.55112e-17
838 1 205.214 38.2414 -5.55112e-17
839 2 185.944 147.902 -5.55112e-17
840 1 53.6968 70.3962 -5.55112e-17
841 2 55.3697 46.2276 -5.55112e-17
842 1 217.373 9.67786 -5.55112e-17
843 2 172.525 156.866 -5.55112e-17
844 1 25.9704 13.2528 -5.55112e-17
845 1 16.2047 182.798 -5.55112e-17
846 1 133.446 17.9133 -5.55112e-17
847 1 14.8246 194.828 -5.55112e-17
848 1 128.882 54.7829 -5.55112e-17
849 1 141.627 150.397 -5.55112e-17
850 1 66.7669 179.662 -5.55112e-17
851 1 82.1327 54.5663 -5.55112e-17
852 1 52.6367 35.2917 -5.55112e-17
853 1 136.49 152.856 -5.55112e-17
854 1 45.8628 116.333 -5.55112e-17
855 1 128.64 59.3709 -5.55112e-17