ITEM: TIMESTEP
0
ITEM: NUMBER OF ATOMS
7200
ITEM: BOX BOUNDS xy xz yz pp pp pp
0.0000000000000000e+00 2.1900000000000000e+02 0.0000000000000000e+00
0.0000000000000000e+00 2.1900000000000000e+02 0.0000000000000000e+00
-3.6499999999999999e-01 3.6499999999999999e-01 0.0000000000000000e+00
ITEM: ATOMS id type x y z
1 1 187.67 137.353 -5.55112e-17
2 1 25.2914 208.574 -5.55112e-17
3 1 81.9467 47.0971 -5.55112e-17
4 1 50.8797 122.04 -5.55112e-17
5 1 153.88 130.712 -5.55112e-17
6 1 1.3998 92.8618 -5.55112e-17
7 1 21.1932 23.1523 -5.55112e-17
8 2 180.085 161.239 -5.55112e-17
9 1 101.036 172.038 -5.55112e-17
10 2 138.441 144.083 -5.55112e-17
11 1 173.448 200.918 -5.55112e-17
12 1 189.837 102.673 -5.55112e-17
13 2 116.989 28.1543 -5.55112e-17
14 1 99.4883 27.8077 -5.55112e-17
15 1 148.894 153.307 -5.55112e-17
16 2 193.581 204.32 -5.55112e-17
17 1 24.9557 30.5737 -5.55112e-17
18 2 119.322 98.144 -5.55112e-17
19 1 78.5839 107.064 -5.55112e-17
20 1 137.792 173.897 -5.55112e-17
21 1 143.125 184.508 -5.55112e-17
22 2 157.713 17.6314 -5.55112e-17
23 2 39.7819 161.532 -5.55112e-17
24 1 95.3776 97.5885 -5.55112e-17
25 1 47.8709 21.7534 -5.55112e-17
26 2 115.323 120.958 -5.55112e-17
27 1 47.6972 32.1184 -5.55112e-17
28 2 98.4047 45.7372 -5.55112e-17
29 1 52.6209 11.724 -5.55112e-17
30 1 186.632 113.946 -5.55112e-17
31 1 106.912 154.89 -5.55112e-17
32 1 75.9037 112.187 -5.55112e-17
33 1 99.8747 78.1067 -5.55112e-17
34 1 108.765 105.94 -5.55112e-17
35 1 56.6941 186.604 -5.55112e-17
36 1 27.7023 78.3239 -5.55112e-17
37 2 153.997 101.465 -5.55112e-17
38 1 35.2206 179.733 -5.55112e-17
39 1 60.5935 206.168 -5.55112e-17
40 1 49.0511 204.472 -5.55112e-17
41 1 170.734 74.9652 -5.55112e-17
42 1 216.093 153.828 -5.55112e-17
43 1 153.85 87.5745 -5.55112e-17
44 1 184.121 157.753 -5.55112e-17
45 1 91.5135 30.0234 -5.55112e-17
46 1 163.968 179.657 -5.55112e-17
47 1 212.733 67.6388 -5.55112e-17
48 2 216.117 78.7439 -5.55112e-17
49 1 76.471 6.51312 -5.55112e-17
50 1 102.76 159.55 -5.55112e-17
51 1 49.8367 75.4508 -5.55112e-17
52 1 69.2469 182.433 -5.55112e-17
53 1 28.4574 83.8045 -5.55112e-17
54 1 115.397 42.2214 -5.55112e-17
55 1 171.513 4.48612 -5.55112e-17
56 1 141.024 37.2635 -5.55112e-17
57 2 207.435 200.661 -5.55112e-17
58 1 43.3581 217.451 -5.55112e-17
59 1 121.315 182.388 -5.55112e-17
60 2 4.47554 113.69 -5.55112e-17
61 2 103.753 205.375 -5.55112e-17
62 1 113.84 68.3909 -5.55112e-17
63 1 128.816 198.836 -5.55112e-17
64 1 46.7887 170.109 -5.55112e-17
65 1 49.0606 206.955 -5.55112e-17
66 1 133.208 151.18 -5.55112e-17
67 1 131.703 134.686 -5.55112e-17
68 1 59.8049 41.9716 -5.55112e-17
69 1 9.14342 22.543 -5.55112e-17
70 1 172.967 155.038 -5.55112e-17
71 1 96.8568 3.77286 -5.55112e-17
72 1 156.263 12.0939 -5.55112e-17
73 1 176.453 32.261 -5.55112e-17
74 1 3.53143 75.3428 -5.55112e-17
75 2 50.2462 43.0057 -5.55112e-17
76 1 153.725 90.0596 -5.55112e-17
77 1 30.1721 130.04 -5.55112e-17
78 1 107.944 180.284 -5.55112e-17
79 2 78.6792 19.8967 -5.55112e-17
80 1 187.861 56.7729 -5.55112e-17
81 1 111.216 15.234 -5.55112e-17
82 1 132.326 137.367 -5.55112e-17
83 2 8.12784 172.323 -5.55112e-17
84 1 90.1456 92.8181 -5.55112e-17
85 1 163.853 44.4945 -5.55112e-17
86 1 32.524 83.3747 -5.55112e-17
87 1 92.6557 129.263 -5.55112e-17
88 1 31.1374 103.697 -5.55112e-17
89 2 203.228 129.243 -5.55112e-17
90 2 82.5479 131.142 -5.55112e-17
91 1 41.2122 141.967 -5.55112e-17
92 2 162.521 130.676 -5.55112e-17
93 1 48.7949 97.5463 -5.55112e-17
94 2 189.449 191.934 -5.55112e-17
95 1 103.66 32.0081 -5.55112e-17
96 1 188.357 54.1209 -5.55112e-17
97 1 178.842 170.753 -5.55112e-17
98 1 13.1165 52.7402 -5.55112e-17
99 1 7.38257 4.41737 -5.55112e-17
100 1 124.204 52.19 -5.55112e-17
101 1 72.2563 125.283 -5.55112e-17
102 1 104.657 145.698 -5.55112e-17
103 1 183.452 80.7072 -5.55112e-17
104 1 4.43568 56.1511 -5.55112e-17
105 1 204.438 83.0308 -5.55112e-17
106 1 90.2968 67.7289 -5.55112e-17
107 2 152.876 4.88425 -5.55112e-17
108 1 153.542 97.2289 -5.55112e-17
109 1 114.429 149.749 -5.55112e-17
110 1 115.764 217.439 -5.55112e-17
111 1 209.53 187.141 -5.55112e-17
112 1 14.7764 163.301 -5.55112e-17
113 1 171.512 114.925 -5.55112e-17
114 1 216.021 203.618 -5.55112e-17
115 1 9.94526 122.757 -5.55112e-17
116 2 33.9356 58.0415 -5.55112e-17
117 1 177.932 217.142 -5.55112e-17
118 1 10.6903 151.989 -5.55112e-17
119 2 126.809 208.944 -5.55112e-17
120 1 128.845 178.446 -5.55112e-17
121 1 201.871 15.8313 -5.55112e-17
122 1 61.704 195.437 -5.55112e-17
123 1 37.2837 37.441 -5.55112e-17
124 1 106.082 91.3415 -5.55112e-17
125 1 211.395 168.992 -5.55112e-17
126 1 1.35346 146.117 -5.55112e-17
127 1 81.3054 142.562 -5.55112e-17
128 1 137.652 44.2781 -5.55112e-17
129 1 198.926 144.459 -5.55112e-17
130 1 21.3975 187.363 -5.55112e-17
131 1 98.377 21.5574 -5.55112e-17
132 2 193.076 217.656 -5.55112e-17
133 1 115.85 48.983 -5.55112e-17
134 1 160.954 116.48 -5.55112e-17
135 1 166.317 203.821 -5.55112e-17
136 1 70.4205 59.7108 -5.55112e-17
137 1 75.6897 78.4749 -5.55112e-17
138 1 62.0862 214.555 -5.55112e-17
139 1 58.1488 11.1858 -5.55112e-17
140 2 104.499 181.117 -5.55112e-17
141 1 204.739 193.692 -5.55112e-17
142 2 150.613 135.845 -5.55112e-17
143 1 212.438 36.9686 -5.55112e-17
144 2 194.283 211.553 -5.55112e-17
145 1 210.35 127.69 -5.55112e-17
146 1 70.2884 104.338 -5.55112e-17
147 1 148.012 91.5669 -5.55112e-17
148 1 109.934 120.851 -5.55112e-17
149 1 74.4346 154.239 -5.55112e-17
150 1 81.0835 161.212 -5.55112e-17
151 1 120.409 40.7035 -5.55112e-17
152 1 19.2784 73.0698 -5.55112e-17
153 2 18.4444 53.8692 -5.55112e-17
154 1 213.098 126.802 -5.55112e-17
155 1 101.825 176.454 -5.55112e-17
156 2 58.7964 138.141 -5.55112e-17
157 1 167.937 48.0109 -5.55112e-17
158 1 149.811 98.8247 -5.55112e-17
159 1 159.652 75.0351 -5.55112e-17
160 1 72.4692 72.6499 -5.55112e-17
161 1 121.671 124.121 -5.55112e-17
162 1 213.259 214.06 -5.55112e-17
163 1 174.006 157.323 -5.55112e-17
164 1 201.765 26.8873 -5.55112e-17
165 1 104.543 76.2738 -5.55112e-17
166 2 66.6883 141.498 -5.55112e-17
167 1 208.938 179.276 -5.55112e-17
168 1 159.28 121.146 -5.55112e-17
169 1 18.1571 130.586 -5.55112e-17
170 1 137.997 176.441 -5.55112e-17
171 1 25.7529 82.9341 -5.55112e-17
172 1 35.6325 2.61943 -5.55112e-17
173 1 89.6839 209.346 -5.55112e-17
174 1 107.569 111.144 -5.55112e-17
175 2 116.852 23.2526 -5.55112e-17
176 1 99.8433 184.431 -5.55112e-17
177 2 146.759 75.2327 -5.55112e-17
178 1 120.187 140.998 -5.55112e-17
179 1 30.7764 155.48 -5.55112e-17
180 1 208.712 169.453 -5.55112e-17
181 1 67.6502 160.114 -5.55112e-17
182 2 46.1917 79.5687 -5.55112e-17
183 1 111.383 193.858 -5.55112e-17
184 1 146.441 20.0147 -5.55112e-17
185 2 80.4987 206.299 -5.55112e-17
186 2 98.2294 83.196 -5.55112e-17
187 1 46.9348 95.8821 -5.55112e-17
188 1 218.516 162.623 -5.55112e-17
189 1 137.95 181.417 -5.55112e-17
190 2 218.198 22.9966 -5.55112e-17
191 1 70.8153 33.9645 -5.55112e-17
192 2 201.449 217.862 -5.55112e-17
193 2 216.861 50.9577 -5.55112e-17
194 1 13.8487 8.30851 -5.55112e-17
195 1 153.065 15.971 -5.55112e-17
196 1 210.237 161.12 -5.55112e-17
197 1 43.5472 132.729 -5.55112e-17
198 2 13.6206 150.413 -5.55112e-17
199 1 53.0531 112.82 -5.55112e-17
200 1 180.905 206.928 -5.55112e-17
201 2 160.027 195.88 -5.55112e-17
202 1 84.0803 27.7998 -5.55112e-17
203 1 49.4645 28.311 -5.55112e-17
204 1 103.646 111.513 -5.55112e-17
205 2 120.621 18.208 -5.55112e-17
206 1 125.645 86.9633 -5.55112e-17
207 1 172.306 90.8992 -5.55112e-17
208 1 87.3693 72.7378 -5.55112e-17
209 1 79.0695 200.334 -5.55112e-17
210 1 45.8244 160.809 -5.55112e-17
211 2 83.8229 175.806 -5.55112e-17
212 1 128.525 39.7923 -5.55112e-17
213 1 83.3863 206.358 -5.55112e-17
214 1 150.216 0.443571 -5.55112e-17
215 1 64.0733 64.8151 -5.55112e-17
216 1 67.9354 60.5315 -5.55112e-17
217 1 199.718 72.4789 -5.55112e-17
218 2 117.986 182.915 -5.55112e-17
219 1 43.6824 106.432 -5.55112e-17
220 2 177.607 139.349 -5.55112e-17
221 1 9.13818 178.196 -5.55112e-17
222 1 126.004 13.5115 -5.55112e-17
223 1 197.767 107.338 -5.55112e-17
224 2 13.6609 194.013 -5.55112e-17
225 1 217.345 165.196 -5.55112e-17
226 1 187.384 76.0564 -5.55112e-17
227 2 186.009 1.66485 -5.55112e-17
228 1 206.137 20.0214 -5.55112e-17
229 1 64.3294 110.031 -5.55112e-17
230 1 20.4254 110.941 -5.55112e-17
231 1 158.045 49.6859 -5.55112e-17
232 1 35.3612 153.438 -5.55112e-17
233 1 152.597 8.06084 -5.55112e-17
234 1 211.242 156.473 -5.55112e-17
235 1 171.114 217.491 -5.55112e-17
236 1 131.516 48.837 -5.55112e-17
237 1 26.1567 73.5604 -5.55112e-17
238 1 39.3238 155.854 -5.55112e-17
239 2 216.344 108.716 -5.55112e-17
240 1 137.844 168.847 -5.55112e-17
241 2 90.4357 137.709 -5.55112e-17
242 2 175.098 176.441 -5.55112e-17
243 2 84.754 139.235 -5.55112e-17
244 1 57.1994 93.566 -5.55112e-17
245 1 13.9755 177.142 -5.55112e-17
246 1 201.317 170.577 -5.55112e-17
247 1 200.974 103.327 -5.55112e-17
248 1 206.145 170.474 -5.55112e-17
249 1 199.714 93.512 -5.55112e-17
250 2 175.217 189.28 -5.55112e-17
251 1 84.1615 117.928 -5.55112e-17
252 1 83.522 152.571 -5.55112e-17
253 1 54.6218 185.31 -5.55112e-17
254 2 158.605 171.019 -5.55112e-17
255 1 200.787 111.767 -5.55112e-17
256 1 95.3462 117.99 -5.55112e-17
257 1 164.706 91.2079 -5.55112e-17
258 2 120.742 113.301 -5.55112e-17
259 1 104.02 130.542 -5.55112e-17
260 1 44.1828 0.971719 -5.55112e-17
261 1 182.503 50.9487 -5.55112e-17
262 1 200.793 9.67888 -5.55112e-17
263 1 152.183 53.8362 -5.55112e-17
264 1 106.98 182.701 -5.55112e-17
265 1 89.2704 191.651 -5.55112e-17
266 1 198.491 180.99 -5.55112e-17
267 1 119.23 149.94 -5.55112e-17
268 1 62.4097 111.668 -5.55112e-17
269 1 188.719 17.114 -5.55112e-17
270 1 104.441 168.749 -5.55112e-17
271 1 22.4949 88.7498 -5.55112e-17
272 1 20.5375 97.2565 -5.55112e-17
273 1 18.3542 152.408 -5.55112e-17
274 2 68.8085 201.961 -5.55112e-17
275 1 82.2453 53.7787 -5.55112e-17
276 2 161.508 97.7119 -5.55112e-17
277 2 44.9299 23.0381 -5.55112e-17
278 1 185.136 109.164 -5.55112e-17
279 2 156.707 130.25 -5.55112e-17
280 1 136.036 153.768 -5.55112e-17
281 1 92.6759 51.4303 -5.55112e-17
282 1 1.46648 141.22 -5.55112e-17
283 1 103.824 85.8141 -5.55112e-17
284 1 37.8872 9.37098 -5.55112e-17
285 1 23.4055 28.456 -5.55112e-17
286 2 162.942 23.6257 -5.55112e-17
287 1 51.1703 187.552 -5.55112e-17
288 1 202.058 118.685 -5.55112e-17
289 1 119.186 32.7346 -5.55112e-17
290 1 152.16 46.81 -5.55112e-17
291 1 97.8941 23.8622 -5.55112e-17
292 2 51.8834 184.811 -5.55112e-17
293 2 75.3862 160.089 -5.55112e-17
294 1 64.3679 122.248 -5.55112e-17
295 1 20.7677 210.302 -5.55112e-17
296 1 67.6165 0.336262 -5.55112e-17
297 1 8.98184 141.966 -5.55112e-17
298 1 27.8332 68.0469 -5.55112e-17
299 1 131.391 30.0345 -5.55112e-17
300 2 158.735 42.7931 -5.55112e-17
301 1 122.559 136.977 -5.55112e-17
302 1 127.303 153.195 -5.55112e-17
303 2 146.419 195.964 -5.55112e-17
304 2 101.791 29.7315 -5.55112e-17
305 1 94.416 55.4314 -5.55112e-17
306 1 36.013 150.626 -5.55112e-17
307 1 33.6813 76.2374 -5.55112e-17
308 1 16.5065 189.878 -5.55112e-17
309 2 52.0364 158.015 -5.55112e-17
310 1 48.4496 6.58139 -5.55112e-17
311 1 183.906 201.965 -5.55112e-17
312 1 9.29642 16.2495 -5.55112e-17
313 2 184.303 194.785 -5.55112e-17
314 1 27.7481 204.061 -5.55112e-17
315 1 216.505 189.938 -5.55112e-17
316 1 77.0949 30.3675 -5.55112e-17
317 1 83.378 149.995 -5.55112e-17
318 1 202.994 131.694 -5.55112e-17
319 1 52.8112 9.14993 -5.55112e-17
320 1 0.969502 41.6401 -5.55112e-17
321 1 50.0956 145.684 -5.55112e-17
322 1 111.534 26.9787 -5.55112e-17
323 1 133.219 15.1815 -5.55112e-17
324 1 5.77855 51.6416 -5.55112e-17
325 1 13.6552 131.595 -5.55112e-17
326 1 102.722 98.1301 -5.55112e-17
327 2 55.4081 84.1951 -5.55112e-17
328 1 21.953 45.3148 -5.55112e-17
329 2 90.8914 153.099 -5.55112e-17
330 1 180.991 48.1387 -5.55112e-17
331 1 8.87405 185.117 -5.55112e-17
332 2 82.1547 92.8484 -5.55112e-17
333 1 56.8046 3.35365 -5.55112e-17
334 1 149.131 128.558 -5.55112e-17
335 1 76.0086 149.034 -5.55112e-17
336 1 80.8558 24.7293 -5.55112e-17
337 1 21.4625 207.225 -5.55112e-17
338 1 53.9562 183.022 -5.55112e-17
339 1 167.268 90.5809 -5.55112e-17
340 1 74.8733 198.131 -5.55112e-17
341 1 110.77 78.1069 -5.55112e-17
342 1 213.942 110.994 -5.55112e-17
343 1 150.447 118.917 -5.55112e-17
344 1 113.239 184.667 -5.55112e-17
345 1 24.5259 32.7735 -5.55112e-17
346 1 20.7148 199.929 -5.55112e-17
347 1 136.034 90.2487 -5.55112e-17
348 1 3.81767 10.6394 -5.55112e-17
349 1 169.157 174.215 -5.55112e-17
350 2 10.6469 61.6843 -5.55112e-17
351 1 142.175 137.322 -5.55112e-17
352 1 26.3562 4.36274 -5.55112e-17
353 1 153.479 67.398 -5.55112e-17
354 1 154.386 82.6174 -5.55112e-17
355 1 86.3678 49.0217 -5.55112e-17
356 1 46.4275 164.958 -5.55112e-17
357 1 83.9916 142.103 -5.55112e-17
358 1 170.744 135.994 -5.55112e-17
359 1 203.947 72.066 -5.55112e-17
360 1 153.618 19.918 -5.55112e-17
361 1 154.305 139.978 -5.55112e-17
362 1 158.27 88.2755 -5.55112e-17
363 1 83.9583 95.3385 -5.55112e-17
364 2 142.631 128.44 -5.55112e-17
365 1 161.861 139.385 -5.55112e-17
366 1 95.4304 161.448 -5.55112e-17
367 1 207.424 143.775 -5.55112e-17
368 1 140.195 172.225 -5.55112e-17
369 2 41.8619 206.709 -5.55112e-17
370 1 84.7847 128.944 -5.55112e-17
371 1 164.44 199.87 -5.55112e-17
372 2 1.55068 164.637 -5.55112e-17
373 2 216.583 6.86809 -5.55112e-17
374 1 140.384 215.01 -5.55112e-17
375 1 44.9915 110.738 -5.55112e-17
376 1 28.4017 5.25999 -5.55112e-17
377 1 181.512 158.841 -5.55112e-17
378 1 152.208 200.69 -5.55112e-17
379 1 133.5 50.694 -5.55112e-17
380 1 156.676 26.8879 -5.55112e-17
381 1 125.282 142.502 -5.55112e-17
382 1 139.132 210.455 -5.55112e-17
383 1 70.5879 131.597 -5.55112e-17
384 1 211.882 24.7953 -5.55112e-17
385 1 99.9706 127.901 -5.55112e-17
386 2 108.684 203.226 -5.55112e-17
387 1 218.471 25.7529 -5.55112e-17
388 1 18.8517 70.6877 -5.55112e-17
389 1 158.297 65.5747 -5.55112e-17
390 2 143.912 28.5127 -5.55112e-17
391 2 87.5166 65.8589 -5.55112e-17
392 1 164.433 51.5743 -5.55112e-17
393 1 26.42 195.727 -5.55112e-17
394 1 95.76 81.0534 -5.55112e-17
395 1 144.309 135.849 -5.55112e-17
396 1 58.3732 154.196 -5.55112e-17
397 1 187.951 98.0271 -5.55112e-17
398 1 134.612 190.164 -5.55112e-17
399 1 35.3404 64.1987 -5.55112e-17
400 1 121.62 189.767 -5.55112e-17
401 1 86.6518 28.1565 -5.55112e-17
402 2 59.1564 122.902 -5.55112e-17
403 1 24.1251 183.858 -5.55112e-17
404 1 62.4088 123.561 -5.55112e-17
405 1 131.203 214.942 -5.55112e-17
406 1 48.9117 2.56711 -5.55112e-17
407 2 61.2764 55.177 -5.55112e-17
408 1 54.963 140.739 -5.55112e-17
409 1 26.2102 57.2331 -5.55112e-17
410 1 190.001 144.373 -5.55112e-17
411 1 163.526 99.5935 -5.55112e-17
412 1 70.7017 27.184 -5.55112e-17
413 1 88.0019 214.608 -5.55112e-17
414 1 192.696 156.05 -5.55112e-17
415 1 132.635 188.521 -5.55112e-17
416 1 45.2948 31.3126 -5.55112e-17
417 1 24.2338 100.599 -5.55112e-17
418 2 46.9027 50.0673 -5.55112e-17
419 1 166.943 2.87841 -5.55112e-17
420 2 83.5247 22.7341 -5.55112e-17
421 1 138.184 73.2595 -5.55112e-17
422 1 101.931 79.9711 -5.55112e-17
423 2 116.732 152.174 -5.55112e-17
424 1 105.206 172.91 -5.55112e-17
425 1 198.964 147.353 -5.55112e-17
426 1 92.5022 84.0554 -5.55112e-17
427 1 156.595 181.969 -5.55112e-17
428 1 3.52194 94.5172 -5.55112e-17
429 1 144.513 130.678 -5.55112e-17
430 1 77.1467 37.251 -5.55112e-17
431 1 48.2839 19.0958 -5.55112e-17
432 1 177.629 190.563 -5.55112e-17
433 1 113.483 205.806 -5.55112e-17
434 1 174.79 10.9456 -5.55112e-17
435 1 171.292 141.149 -5.55112e-17
436 1 156.337 31.1802 -5.55112e-17
437 1 71.9448 114.027 -5.55112e-17
438 2 90.8654 21.7522 -5.55112e-17
439 1 16.3369 70.2017 -5.55112e-17
440 1 110.194 208.641 -5.55112e-17
441 1 56.8879 200.28 -5.55112e-17
442 1 138.438 166.361 -5.55112e-17
443 1 101.43 90.6826 -5.55112e-17
444 1 168.13 68.4685 -5.55112e-17
445 1 196.768 87.8718 -5.55112e-17
446 1 180.205 135.697 -5.55112e-17
447 1 24.5593 197.341 -5.55112e-17
448 1 77.6981 170.04 -5.55112e-17
449 1 90.2541 55.1573 -5.55112e-17
450 1 200.961 87.0653 -5.55112e-17
451 1 179.533 195.978 -5.55112e-17
452 1 120.58 166.081 -5.55112e-17
453 1 8.43622 215.779 -5.55112e-17
454 1 124.298 202.829 -5.55112e-17
455 1 181.218 201.595 -5.55112e-17
456 1 185.252 130.862 -5.55112e-17
457 1 117.927 114.332 -5.55112e-17
458 1 176.833 156.83 -5.55112e-17
459 1 163.629 208.067 -5.55112e-17
460 1 208.236 215.72 -5.55112e-17
461 1 17.2969 24.505 -5.55112e-17
462 1 138.706 8.31225 -5.55112e-17
463 1 162.449 111.886 -5.55112e-17
464 1 0.498584 88.2585 -5.55112e-17
465 1 60.7147 132.712 -5.55112e-17
466 1 179.229 185.164 -5.55112e-17
467 1 161.494 20.9314 -5.55112e-17
468 1 71.1418 150.326 -5.55112e-17
469 1 105.661 163.29 -5.55112e-17
470 1 99.6729 66.4481 -5.55112e-17
471 1 188.899 1.66343 -5.55112e-17
472 1 139.355 158.818 -5.55112e-17
473 1 100.904 10.7874 -5.55112e-17
474 1 116.991 212.956 -5.55112e-17
475 1 119.973 80.3315 -5.55112e-17
476 2 182.613 117.748 -5.55112e-17
477 1 1.90653 121.321 -5.55112e-17
478 1 172.134 28.2663 -5.55112e-17
479 1 203.96 3.47353 -5.55112e-17
480 1 81.4874 180.292 -5.55112e-17
481 1 132.624 19.2601 -5.55112e-17
482 1 125.461 18.8839 -5.55112e-17
483 1 209.397 86.1319 -5.55112e-17
484 2 92.8861 135.544 -5.55112e-17
485 1 116.191 20.2059 -5.55112e-17
486 1 31.0123 56.0663 -5.55112e-17
487 1 63.7241 190.496 -5.55112e-17
488 1 28.7212 57.936 -5.55112e-17
489 1 189.071 201.667 -5.55112e-17
490 1 119.564 180.492 -5.55112e-17
491 1 82.4006 89.7794 -5.55112e-17
492 1 134.835 92.939 -5.55112e-17
493 1 109.201 1.38011 -5.55112e-17
494 1 126.594 44.6116 -5.55112e-17
495 1 3.90011 91.8688 -5.55112e-17
496 2 153.155 12.978 -5.55112e-17
497 1 75.364 39.4741 -5.55112e-17
498 1 132.757 35.396 -5.55112e-17
499 2 102.644 192.015 -5.55112e-17
500 1 127.468 165.639 -5.55112e-17
501 2 142.734 15.8894 -5.55112e-17
502 2 204.221 74.8919 -5.55112e-17
503 1 169.498 171.695 -5.55112e-17
504 1 4.87576 20.6537 -5.55112e-17
505 1 195.252 67.2445 -5.55112e-17
506 1 28.078 171.299 -5.55112e-17
507 1 164.981 214.565 -5.55112e-17
508 1 118.364 119.607 -5.55112e-17
509 2 166.417 103.708 -5.55112e-17
510 2 62.8026 105.283 -5.55112e-17
511 1 46.448 202.815 -5.55112e-17
512 2 119.453 65.4949 -5.55112e-17
513 1 159.156 173.897 -5.55112e-17
514 1 130.378 156.851 -5.55112e-17
515 1 128.694 131.287 -5.55112e-17
516 1 109.574 134.199 -5.55112e-17
517 1 208.352 59.9769 -5.55112e-17
518 2 4.68387 72.8135 -5.55112e-17
519 1 21.2157 39.8667 -5.55112e-17
520 2 95.6178 196.215 -5.55112e-17
521 1 122.661 56.8156 -5.55112e-17
522 1 189.539 65.3487 -5.55112e-17
523 1 108.693 103.632 -5.55112e-17
524 1 166.472 20.1392 -5.55112e-17
525 1 149.142 20.9006 -5.55112e-17
526 1 158.833 20.3386 -5.55112e-17
527 1 2.4949 109.369 -5.55112e-17
528 1 31.6004 20.0065 -5.55112e-17
529 1 104.111 41.2436 -5.55112e-17
530 1 147.625 82.2036 -5.55112e-17
531 1 207.672 160.84 -5.55112e-17
532 1 95.1978 102.073 -5.55112e-17
533 1 19.1255 132.985 -5.55112e-17
534 1 173.629 124.192 -5.55112e-17
535 1 206.864 121.179 -5.55112e-17
536 1 181.858 67.8662 -5.55112e-17
537 1 61.0722 100.119 -5.55112e-17
538 1 50.9923 40.0519 -5.55112e-17
539 1 2.88211 40.1104 -5.55112e-17
540 1 213.853 168.433 -5.55112e-17
541 1 109.122 22.0883 -5.55112e-17
542 1 212.689 70.1045 -5.55112e-17
543 1 159.246 0.42139 -5.55112e-17
544 1 33.0224 6.95557 -5.55112e-17
545 1 193.947 25.2525 -5.55112e-17
546 1 85.9608 60.8068 -5.55112e-17
547 1 3.88187 166.569 -5.55112e-17
548 1 73.8713 174.322 -5.55112e-17
549 1 22.0642 34.0385 -5.55112e-17
550 2 21.4248 75.0248 -5.55112e-17
551 2 40.111 26.1798 -5.55112e-17
552 2 120.354 214.027 -5.55112e-17
553 1 94.494 64.6121 -5.55112e-17
554 1 203.611 87.5963 -5.55112e-17
555 2 193.624 158.81 -5.55112e-17
556 1 46.3323 153.147 -5.55112e-17
557 1 208.047 1.22187 -5.55112e-17
558 1 32.6961 123.458 -5.55112e-17
559 1 146.958 55.7958 -5.55112e-17
560 1 140.785 3.93615 -5.55112e-17
561 1 17.0268 118.74 -5.55112e-17
562 1 205.228 149.667 -5.55112e-17
563 2 205.642 23.0774 -5.55112e-17
564 1 155.72 24.5148 -5.55112e-17
565 1 7.63856 96.4144 -5.55112e-17
566 1 58.4842 33.9738 -5.55112e-17
567 1 3.19546 116.391 -5.55112e-17
568 1 71.7211 16.718 -5.55112e-17
569 1 92.5819 37.8569 -5.55112e-17
570 1 166.825 132.877 -5.55112e-17
571 1 198.936 30.5038 -5.55112e-17
572 1 151.544 154.036 -5.55112e-17
573 1 63.7329 197.258 -5.55112e-17
574 1 61.6447 147.014 -5.55112e-17
575 1 42.4238 60.1196 -5.55112e-17
576 1 62.7394 85.4808 -5.55112e-17
577 1 172.647 138.347 -5.55112e-17
578 1 184.31 59.3279 -5.55112e-17
579 1 51.9236 36.0424 -5.55112e-17
580 1 203.229 62.0365 -5.55112e-17
581 1 193.936 28.9848 -5.55112e-17
582 1 45.6387 177.211 -5.55112e-17
583 1 197.067 48.9724 -5.55112e-17
584 2 175.898 202.231 -5.55112e-17
585 1 210.128 174.067 -5.55112e-17
586 1 1.11676 105.308 -5.55112e-17
587 1 160.208 114.154 -5.55112e-17
588 1 184.84 106.681 -5.55112e-17
589 1 206.535 191.955 -5.55112e-17
590 1 139.987 99.5898 -5.55112e-17
591 1 9.0718 132.457 -5.55112e-17
592 1 80.3306 55.7206 -5.55112e-17
593 1 104.6 154.25 -5.55112e-17
594 1 166.18 191.157 -5.55112e-17
595 1 66.8691 21.6049 -5.55112e-17
596 1 44.1573 142.01 -5.55112e-17
597 2 129.893 37.3058 -5.55112e-17
598 1 36.6338 16.0795 -5.55112e-17
599 1 217.792 56.4154 -5.55112e-17
600 1 114.419 11.8544 -5.55112e-17
601 1 153.242 149.639 -5.55112e-17
602 1 132.001 43.9485 -5.55112e-17
603 1 165.973 75.3136 -5.55112e-17
604 1 152.44 10.4102 -5.55112e-17
605 2 175.591 164.218 -5.55112e-17
606 1 131.415 27.3578 -5.55112e-17
607 2 60.1386 97.3105 -5.55112e-17
608 1 43.033 41.4837 -5.55112e-17
609 1 122.074 174.037 -5.55112e-17
610 1 203.507 20.9161 -5.55112e-17
611 1 131.657 210.453 -5.55112e-17
612 1 183.412 48.3112 -5.55112e-17
613 1 171.441 201.746 -5.55112e-17
614 2 143.348 79.9865 -5.55112e-17
615 1 141.566 77.2719 -5.55112e-17
616 1 20.7422 28.7463 -5.55112e-17
617 1 63.5403 80.4985 -5.55112e-17
618 1 10.6207 64.7989 -5.55112e-17
619 1 201.075 212.596 -5.55112e-17
620 1 79.4873 166.255 -5.55112e-17
621 1 88.3612 60.8467 -5.55112e-17
622 1 40.8039 58.2398 -5.55112e-17
623 1 5.8968 204.483 -5.55112e-17
624 1 65.9197 79.5437 -5.55112e-17
625 1 111.061 162.12 -5.55112e-17
626 1 180.869 98.2317 -5.55112e-17
627 1 5.95889 217.411 -5.55112e-17
628 1 69.119 69.872 -5.55112e-17
629 1 196.738 154.165 -5.55112e-17
630 2 114.738 154.878 -5.55112e-17
631 1 45.6555 41.0456 -5.55112e-17
632 1 165.848 69.5399 -5.55112e-17
633 1 126.821 203.4 -5.55112e-17
634 1 206.654 26.2333 -5.55112e-17
635 1 164.762 85.1676 -5.55112e-17
636 1 215.894 143.367 -5.55112e-17
637 1 212.612 34.4665 -5.55112e-17
638 1 87.3124 205.431 -5.55112e-17
639 2 134.61 100.136 -5.55112e-17
640 1 218.986 5.05812 -5.55112e-17
641 1 128.743 216.336 -5.55112e-17
642 1 119.344 211.61 -5.55112e-17
643 2 142.205 94.9502 -5.55112e-17
644 1 195.207 129.417 -5.55112e-17
645 1 88.1748 40.7066 -5.55112e-17
646 2 23.1741 218.933 -5.55112e-17
647 1 39.9185 38.203 -5.55112e-17
648 1 45.9715 86.7092 -5.55112e-17
649 2 137.897 105.387 -5.55112e-17
650 1 26.5597 18.067 -5.55112e-17
651 1 183.062 120.573 -5.55112e-17
652 1 44.5073 61.3637 -5.55112e-17
653 1 146.481 165.3 -5.55112e-17
654 1 202.523 176.214 -5.55112e-17
655 2 69.4236 86.8091 -5.55112e-17
656 1 214.687 36.0027 -5.55112e-17
657 2 128.392 141.01 -5.55112e-17
658 1 30.014 91.5338 -5.55112e-17
659 2 126.137 179.966 -5.55112e-17
660 1 116.394 46.4587 -5.55112e-17
661 1 35.5878 187.207 -5.55112e-17
662 1 189.402 100.111 -5.55112e-17
663 1 19.4147 185.412 -5.55112e-17
664 1 172.817 71.3798 -5.55112e-17
665 1 7.46109 33.5219 -5.55112e-17
666 2 100.922 74.8423 -5.55112e-17
667 1 170.167 178.745 -5.55112e-17
668 2 210.28 27.0573 -5.55112e-17
669 1 162.129 36.0247 -5.55112e-17
670 1 51.5719 173.071 -5.55112e-17
671 2 123.192 72.3827 -5.55112e-17
672 1 133.689 132.569 -5.55112e-17
673 1 169.02 42.9415 -5.55112e-17
674 1 44.0649 204.519 -5.55112e-17
675 1 131.725 158.674 -5.55112e-17
676 1 193.637 39.4706 -5.55112e-17
677 1 218.021 155.316 -5.55112e-17
678 1 30.8504 84.9952 -5.55112e-17
679 2 182.093 45.5132 -5.55112e-17
680 1 215.532 166.655 -5.55112e-17
681 2 29.0955 10.9239 -5.55112e-17
682 1 203.208 162.087 -5.55112e-17
683 1 214.123 190.827 -5.55112e-17
684 1 87.7195 32.8594 -5.55112e-17
685 1 157.994 149.71 -5.55112e-17
686 1 41.4289 104.704 -5.55112e-17
687 1 120.675 217.198 -5.55112e-17
688 1 153.272 171.573 -5.55112e-17
689 2 10.2718 78.3804 -5.55112e-17
690 1 186.495 193.163 -5.55112e-17
691 1 112.115 12.5592 -5.55112e-17
692 1 60.6224 162.835 -5.55112e-17
693 1 83.9974 83.0776 -5.55112e-17
694 1 62.401 95.5309 -5.55112e-17
695 1 120.08 172.812 -5.55112e-17
696 1 41.9343 111.473 -5.55112e-17
697 1 116.314 105.217 -5.55112e-17
698 1 15.2446 217.429 -5.55112e-17
699 1 168.827 141.59 -5.55112e-17
700 1 134.982 107.48 -5.55112e-17
701 1 97.6632 162.845 -5.55112e-17
702 1 21.8206 42.2727 -5.55112e-17
703 2 8.17616 108.75 -5.55112e-17
704 1 191.753 202.389 -5.55112e-17
705 2 183.669 113.284 -5.55112e-17
706 1 83.3881 34.2339 -5.55112e-17
707 1 4.181 23.0438 -5.55112e-17
708 1 201.66 89.5918 -5.55112e-17
709 1 55.7519 44.8546 -5.55112e-17
710 1 146.334 124.762 -5.55112e-17
711 1 64.0648 49.7553 -5.55112e-17
712 1 106.267 42.424 -5.55112e-17
713 1 73.172 132.692 -5.55112e-17
714 1 26.9646 96.2172 -5.55112e-17
715 1 95.6758 22.4641 -5.55112e-17
716 1 146.18 0.547303 -5.55112e-17
717 1 133.43 171.004 -5.55112e-17
718 1 168.696 120.713 -5.55112e-17
719 2 198.711 215.106 -5.55112e-17
720 1 214.458 52.5005 -5.55112e-17
721 1 52.8341 124.092 -5.55112e-17
722 1 161.505 103.951 -5.55112e-17
723 2 143.598 107.252 -5.55112e-17
724 1 172.135 150.003 -5.55112e-17
725 1 51.3555 170.057 -5.55112e-17
726 1 31.4295 132.58 -5.55112e-17
727 1 167.888 130.59 -5.55112e-17
728 2 64.4243 29.1662 -5.55112e-17
729 1 108.715 73.4699 -5.55112e-17
730 1 17.9945 46.3037 -5.55112e-17
731 1 97.1532 40.7782 -5.55112e-17
732 1 54.9961 5.24018 -5.55112e-17
733 1 4.68636 120.822 -5.55112e-17
734 1 79.5775 195.657 -5.55112e-17
735 1 69.2436 101.739 -5.55112e-17
736 2 23.9872 8.50563 -5.55112e-17
737 1 41.8463 92.1217 -5.55112e-17
738 1 144.964 167.083 -5.55112e-17
739 1 159.462 125.843 -5.55112e-17
740 1 118.189 57.5024 -5.55112e-17
741 2 65.9213 82.451 -5.55112e-17
742 1 88.8452 198.536 -5.55112e-17
743 1 9.04746 102.377 -5.55112e-17
744 2 165.697 169.239 -5.55112e-17
745 1 2.13527 77.9985 -5.55112e-17
746 1 71.4672 173.024 -5.55112e-17
747 2 215.351 15.1546 -5.55112e-17
748 1 176.157 120.119 -5.55112e-17
749 1 69.0989 143.894 -5.55112e-17
750 1 121.267 115.864 -5.55112e-17
751 1 137.334 34.5955 -5.55112e-17
752 1 4.96216 182.835 -5.55112e-17
753 1 218.876 192.36 -5.55112e-17
754 1 12.3213 123.705 -5.55112e-17
755 1 39.3908 158.765 -5.55112e-17
756 2 82.5798 196.321 -5.55112e-17
757 1 90.5761 10.7328 -5.55112e-17
758 1 185.493 180.238 -5.55112e-17
759 1 184.248 15.7787 -5.55112e-17
760 1 101.731 54.3576 -5.55112e-17
761 1 101.249 186.802 -5.55112e-17
762 1 108.477 108.504 -5.55112e-17
763 1 201.869 98.9955 -5.55112e-17
764 2 198.969 178.207 -5.55112e-17
765 1 101.517 203.299 -5.55112e-17
766 1 10.374 57.018 -5.55112e-17
767 1 197.006 21.9547 -5.55112e-17
768 1 83.8747 184.756 -5.55112e-17
769 1 126.058 162.442 -5.55112e-17
770 2 45.174 155.701 -5.55112e-17
771 1 185.523 217.459 -5.55112e-17
772 1 208.419 53.423 -5.55112e-17
773 1 162.804 146.29 -5.55112e-17
774 1 135.466 216.98 -5.55112e-17
775 1 118.965 86.7957 -5.55112e-17
776 1 187.801 49.6413 -5.55112e-17
777 1 191.056 215.529 -5.55112e-17
778 1 47.5059 71.2889 -5.55112e-17
779 1 18.6936 212.214 -5.55112e-17
780 1 29.325 48.5582 -5.55112e-17
781 1 16.231 170.98 -5.55112e-17
782 1 37.6027 25.1826 -5.55112e-17
783 1 9.88845 205.679 -5.55112e-17
784 2 163.196 190.726 -5.55112e-17
785 1 130.588 74.1728 -5.55112e-17
786 1 193.882 201.496 -5.55112e-17
787 1 61.0163 118.828 -5.55112e-17
788 1 179.079 152.147 -5.55112e-17
789 2 47.7558 195.052 -5.55112e-17
790 1 3.58564 123.076 -5.55112e-17
791 2 60.5926 68.5172 -5.55112e-17
792 2 93.4455 32.2518 -5.55112e-17
793 2 169.995 144.235 -5.55112e-17
794 1 197.668 217.642 -5.55112e-17
795 1 19.829 182.647 -5.55112e-17
796 1 98.0053 73.5558 -5.55112e-17
797 1 126.306 174.273 -5.55112e-17
798 2 124.184 169.753 -5.55112e-17
799 2 116.873 193.93 -5.55112e-17
800 2 110.085 101.326 -5.55112e-17
801 1 187.139 148.58 -5.55112e-17
802 1 32.4769 173.544 -5.55112e-17
803 1 101.565 64.3025 -5.55112e-17
804 2 137.556 21.6952 -5.55112e-17
805 1 147.867 143.377 -5.55112e-17
806 1 84.9924 88.1137 -5.55112e-17
807 2 173.015 178.854 -5.55112e-17
808 1 88.0658 113.857 -5.55112e-17
809 2 182.74 62.3396 -5.55112e-17
810 1 40.1665 3.70814 -5.55112e-17
811 1 7.56434 207.088 -5.55112e-17
812 1 212.412 199.247 -5.55112e-17
813 2 183.692 126.48 -5.55112e-17
814 1 26.4652 65.5414 -5.55112e-17
815 1 146.163 32.3862 -5.55112e-17
816 1 15.8725 212.125 -5.55112e-17
817 1 46.6981 167.464 -5.55112e-17
818 1 82.3311 66.2099 -5.55112e-17
819 1 33.6733 188.252 -5.55112e-17
820 1 83.4 36.5811 -5.55112e-17
821 1 89.2778 212.207 -5.55112e-17
822 2 217.493 61.6242 -5.55112e-17
823 2 108.04 157.599 -5.55112e-17
824 1 30.2593 137.39 -5.55112e-17
825 1 73.7116 76.7279 -5.55112e-17
826 1 217.809 115.439 -5.55112e-17
827 1 35.6617 90.4948 -5.55112e-17
828 1 80.2839 95.2192 -5.55112e-17
829 1 135.604 151.383 -5.55112e-17
830 1 140.056 194.55 -5.55112e-17
831 1 148.675 163.622 -5.55112e-17
832 1 0.00595584 11.9236 -5.55112e-17
833 1 3.57334 83.032 -5.55112e-17
834 1 24.8956 2.63265 -5.55112e-17
835 1 16.4554 30.5347 -5.55112e-17
836 1 185.81 104.504 -5.55112e-17
837 1 138.426 2.75473 -5.55112e-17
838 1 13.981 190.889 -5.55112e-17
839 2 197.695 192.795 -5.55112e-17
840 1 152.748 94.5808 -5.55112e-17
841 2 196.151 40.5935 -5.55112e-17
842 1 44.3873 213.158 -5.55112e-17
843 2 19.2941 88.2101 -5.55112e-17
844 1 41.7961 129.594 -5.55112e-17
845 1 62.8449 31.4495 -5.55112e-17
846 1 19.0157 12.6302 -5.55112e-17
847 1 210.793 41.1396 -5.55112e-17
848 1 131.566 111.426 -5.55112e-17
849 1 143.345 88.9039 -5.55112e-17
850 1 58.5517 119.935 -5.55112e-17
851 1 97.4852 16.8102 -5.55112e-17
852 1 92.1751 169.931 -5.55112e-17
853 1 15.7471 98.6373 -5.55112e-17
854 1 79.1165 188.709 -5.55112e-17
855 1 191.484 60.656 -5.55112e-17
856 1 157.046 212.664 -5.55112e-17