ITEM: TIMESTEP
0
ITEM: NUMBER OF ATOMS
7200
ITEM: BOX BOUNDS xy xz yz pp pp pp
0.0000000000000000e+00 2.1900000000000000e+02 0.0000000000000000e+00
0.0000000000000000e+00 2.1900000000000000e+02 0.0000000000000000e+00
-3.6499999999999999e-01 3.6499999999999999e-01 0.0000000000000000e+00
ITEM: ATOMS id type x y z
1 1 10.1096 82.6549 -5.55112e-17
2 1 215.326 89.9135 -5.55112e-17
3 1 1.35331 99.6389 -5.55112e-17
4 1 36.6647 173.039 -5.55112e-17
5 1 131.807 205.438 -5.55112e-17
6 1 218.504 74.7411 -5.55112e-17
7 1 214.691 9.86998 -5.55112e-17
8 2 138.688 113.893 -5.55112e-17
9 1 119.584 23.0011 -5.55112e-17
10 2 172.574 128.706 -5.55112e-17
11 1 175.076 56.4661 -5.55112e-17
12 1 36.0648 104.219 -5.55112e-17
13 2 195.925 194.31 -5.55112e-17
14 1 173.499 19.76 -5.55112e-17
15 1 8.1483 75.2698 -5.55112e-17
16 2 121.646 177.8 -5.55112e-17
17 1 148.478 64.8907 -5.55112e-17
18 2 14.6818 118.893 -5.55112e-17
19 1 176.855 86.6476 -5.55112e-17
20 1 36.2665 131.682 -5.55112e-17
21 1 15.057 153.028 -5.55112e-17
22 2 33.6283 13.9438 -5.55112e-17
23 2 5.95975 73.5423 -5.55112e-17
24 1 4.77999 182.326 -5.55112e-17
25 1 3.85748 100.742 -5.55112e-17
26 2 19.966 138.397 -5.55112e-17
27 1 199.712 9.42625 -5.55112e-17
28 2 77.4788 177.596 -5.55112e-17
29 1 170.829 82.9463 -5.55112e-17
30 1 105.416 157.392 -5.55112e-17
31 1 108.311 130.883 -5.55112e-17
32 1 20.8449 62.3861 -5.55112e-17
33 1 83.4342 170.777 -5.55112e-17
34 1 196.257 94.2879 -5.55112e-17
35 1 154.949 198.3 -5.55112e-17
36 1 25.1008 114.76 -5.55112e-17
37 2 198.313 23.9456 -5.55112e-17
38 1 27.0639 150.587 -5.55112e-17
39 1 173.025 90.4773 -5.55112e-17
40 1 37.2907 115.222 -5.55112e-17
41 1 53.9834 136.965 -5.55112e-17
42 1 143.675 166.293 -5.55112e-17
43 1 182.907 81.3964 -5.55112e-17
44 1 156.214 185.744 -5.55112e-17
45 1 44.9315 105.188 -5.55112e-17
46 1 82.9395 23.2706 -5.55112e-17
47 1 104.803 86.2746 -5.55112e-17
48 2 10.9101 85.4563 -5.55112e-17
49 1 115.12 197.861 -5.55112e-17
50 1 57.5449 143.654 -5.55112e-17
51 1 7.90195 218.143 -5.55112e-17
52 1 139.106 86.7216 -5.55112e-17
53 1 184.036 141.495 -5.55112e-17
54 1 143.272 150.028 -5.55112e-17
55 1 213.929 47.7362 -5.55112e-17
56 1 156.756 172.39 -5.55112e-17
57 2 158.503 163.298 -5.55112e-17
58 1 211.903 205.438 -5.55112e-17
59 1 67.9761 211.165 -5.55112e-17
60 2 116.644 16.0067 -5.55112e-17
61 2 12.6722 96.9043 -5.55112e-17
62 1 53.6046 100.454 -5.55112e-17
63 1 21.1812 117.828 -5.55112e-17
64 1 25.2509 109.239 -5.55112e-17
65 1 194.544 3.79336 -5.55112e-17
66 1 45.2328 191.436 -5.55112e-17
67 1 35.4882 129.229 -5.55112e-17
68 1 83.9544 218.499 -5.55112e-17
69 1 58.325 156.223 -5.55112e-17
70 1 58.1607 131.673 -5.55112e-17
71 1 73.942 37.1468 -5.55112e-17
72 1 208.985 117.923 -5.55112e-17
73 1 101.091 156.086 -5.55112e-17
74 1 197.232 11.4373 -5.55112e-17
75 2 60.4017 22.4815 -5.55112e-17
76 1 143.852 63.23 -5.55112e-17
77 1 159.033 23.9261 -5.55112e-17
78 1 76.4854 121.193 -5.55112e-17
79 2 148.699 155.029 -5.55112e-17
80 1 212.56 24.8345 -5.55112e-17
81 1 117.932 91.5375 -5.55112e-17
82 1 217.623 5.90146 -5.55112e-17
83 2 73.7916 191.071 -5.55112e-17
84 1 213.192 17.4309 -5.55112e-17
85 1 40.5377 130.514 -5.55112e-17
86 1 113.666 152.91 -5.55112e-17
87 1 78.2986 167.419 -5.55112e-17
88 1 63.3954 110.633 -5.55112e-17
89 2 1.39676 47.3161 -5.55112e-17
90 2 46.8865 81.4877 -5.55112e-17
91 1 108.541 21.5953 -5.55112e-17
92 2 194.68 92.0401 -5.55112e-17
93 1 215.269 191.364 -5.55112e-17
94 2 158.984 88.1989 -5.55112e-17
95 1 186.198 90.7618 -5.55112e-17
96 1 122.838 200.57 -5.55112e-17
97 1 16.896 154.857 -5.55112e-17
98 1 185.678 131.583 -5.55112e-17
99 1 192.974 193.084 -5.55112e-17
100 1 133.271 47.8386 -5.55112e-17
101 1 79.7643 22.8576 -5.55112e-17
102 1 85.195 107.441 -5.55112e-17
103 1 126.75 178.286 -5.55112e-17
104 1 5.54501 98.6703 -5.55112e-17
105 1 69.8389 175.909 -5.55112e-17
106 1 120.141 118.541 -5.55112e-17
107 2 146.696 41.6093 -5.55112e-17
108 1 181.343 180.003 -5.55112e-17
109 1 20.1621 98.4599 -5.55112e-17
110 1 192.104 166.796 -5.55112e-17
111 1 14.8331 205.187 -5.55112e-17
112 1 153.822 91.2081 -5.55112e-17
113 1 118.853 43.4867 -5.55112e-17
114 1 53.5647 71.8363 -5.55112e-17
115 1 203.843 111.012 -5.55112e-17
116 2 54.4584 108.397 -5.55112e-17
117 1 196.475 159.174 -5.55112e-17
118 1 112.039 72.6792 -5.55112e-17
119 2 145.194 190.445 -5.55112e-17
120 1 78.5938 158.745 -5.55112e-17
121 1 48.592 134.587 -5.55112e-17
122 1 76.6642 123.789 -5.55112e-17
123 1 187.82 17.3723 -5.55112e-17
124 1 143.953 89.2098 -5.55112e-17
125 1 132.393 183.025 -5.55112e-17
126 1 210.964 139.4 -5.55112e-17
127 1 41.1218 7.31387 -5.55112e-17
128 1 133.87 203.816 -5.55112e-17
129 1 13.887 132.204 -5.55112e-17
130 1 188.138 38.0761 -5.55112e-17
131 1 33.3442 73.2571 -5.55112e-17
132 2 64.3312 208.279 -5.55112e-17
133 1 91.197 73.9318 -5.55112e-17
134 1 140.42 199.326 -5.55112e-17
135 1 115.691 84.8427 -5.55112e-17
136 1 106.242 104.76 -5.55112e-17
137 1 76.6773 217.303 -5.55112e-17
138 1 108.109 109.934 -5.55112e-17
139 1 66.7783 201.357 -5.55112e-17
140 2 204.318 0.192466 -5.55112e-17
141 1 68.0157 21.6974 -5.55112e-17
142 2 30.7691 142.693 -5.55112e-17
143 1 154.442 141.031 -5.55112e-17
144 2 63.754 127.874 -5.55112e-17
145 1 148.784 79.6979 -5.55112e-17
146 1 78.7196 169.801 -5.55112e-17
147 1 192.268 10.167 -5.55112e-17
148 1 18.8559 29.5527 -5.55112e-17
149 1 7.40906 162.162 -5.55112e-17
150 1 13.7809 21.2782 -5.55112e-17
151 1 51.955 135.497 -5.55112e-17
152 1 165.849 186.248 -5.55112e-17
153 2 20.3536 199.204 -5.55112e-17
154 1 106.986 45.5726 -5.55112e-17
155 1 217.318 187.025 -5.55112e-17
156 2 171.664 106.304 -5.55112e-17
157 1 60.107 61.0732 -5.55112e-17
158 1 200.44 27.7425 -5.55112e-17
159 1 130.14 216.558 -5.55112e-17
160 1 75.489 60.7532 -5.55112e-17
161 1 42.2513 61.0497 -5.55112e-17
162 1 130.154 113.329 -5.55112e-17
163 1 79.1478 44.5378 -5.55112e-17
164 1 85.5715 47.4721 -5.55112e-17
165 1 4.97235 11.7442 -5.55112e-17
166 2 126.936 84.491 -5.55112e-17
167 1 94.0236 154.74 -5.55112e-17
168 1 24.5977 173.181 -5.55112e-17
169 1 62.3887 96.8522 -5.55112e-17
170 1 132.313 137.831 -5.55112e-17
171 1 188.308 127.244 -5.55112e-17
172 1 161.002 54.5676 -5.55112e-17
173 1 188.087 45.0726 -5.55112e-17
174 1 17.6936 97.4674 -5.55112e-17
175 2 213.379 106.298 -5.55112e-17
176 1 171.157 216.997 -5.55112e-17
177 2 140.246 187.35 -5.55112e-17
178 1 1.23803 193.786 -5.55112e-17
179 1 184.977 119.567 -5.55112e-17
180 1 168.36 140.61 -5.55112e-17
181 1 85.8548 177.26 -5.55112e-17
182 2 15.5869 10.4766 -5.55112e-17
183 1 37.737 136.6 -5.55112e-17
184 1 187.978 146.87 -5.55112e-17
185 2 141.291 47.2434 -5.55112e-17
186 2 132.613 56.7962 -5.55112e-17
187 1 115.814 143.799 -5.55112e-17
188 1 181.118 196.238 -5.55112e-17
189 1 24.6664 101.213 -5.55112e-17
190 2 181.009 2.50678 -5.55112e-17
191 1 63.0922 79.889 -5.55112e-17
192 2 80.1207 109.369 -5.55112e-17
193 2 32.7354 157.519 -5.55112e-17
194 1 199.311 113.237 -5.55112e-17
195 1 166.079 115.467 -5.55112e-17
196 1 59.3991 195.753 -5.55112e-17
197 1 124.003 157.88 -5.55112e-17
198 2 52.7621 165.934 -5.55112e-17
199 1 51.5485 196.943 -5.55112e-17
200 1 74.1374 42.8107 -5.55112e-17
201 2 137.419 21.4027 -5.55112e-17
202 1 142.505 72.536 -5.55112e-17
203 1 119.448 72.0369 -5.55112e-17
204 1 98.3044 19.3176 -5.55112e-17
205 2 24.1299 154.604 -5.55112e-17
206 1 63.7024 11.7644 -5.55112e-17
207 1 117.759 180.42 -5.55112e-17
208 1 7.91265 4.41269 -5.55112e-17
209 1 164.358 57.4242 -5.55112e-17
210 1 141.749 167.377 -5.55112e-17
211 2 208.211 47.2837 -5.55112e-17
212 1 115.151 57.0166 -5.55112e-17
213 1 16.3373 20.5168 -5.55112e-17
214 1 7.64306 42.5772 -5.55112e-17
215 1 20.1983 33.3649 -5.55112e-17
216 1 168.516 65.632 -5.55112e-17
217 1 83.1898 7.23912 -5.55112e-17
218 2 153.456 214.601 -5.55112e-17
219 1 50.7883 78.1431 -5.55112e-17
220 2 183.322 83.9232 -5.55112e-17
221 1 205.158 51.1138 -5.55112e-17
222 1 194.083 181.267 -5.55112e-17
223 1 40.8783 71.764 -5.55112e-17
224 2 3.16278 207.911 -5.55112e-17
225 1 41.1024 166.795 -5.55112e-17
226 1 184.481 72.12 -5.55112e-17
227 2 37.2027 10.5748 -5.55112e-17
228 1 48.0606 212.196 -5.55112e-17
229 1 160.656 48.9465 -5.55112e-17
230 1 193.532 151.11 -5.55112e-17
231 1 156.128 87.5351 -5.55112e-17
232 1 162.762 39.7401 -5.55112e-17
233 1 151.722 56.4659 -5.55112e-17
234 1 4.5348 46.301 -5.55112e-17
235 1 11.6382 118.144 -5.55112e-17
236 1 164.138 127.736 -5.55112e-17
237 1 81.8492 43.9801 -5.55112e-17
238 1 78.448 114.1 -5.55112e-17
239 2 189.382 122.58 -5.55112e-17
240 1 153.493 58.4419 -5.55112e-17
241 2 65.9233 111.867 -5.55112e-17
242 2 95.5779 10.2352 -5.55112e-17
243 2 51.6432 212.388 -5.55112e-17
244 1 126.159 197.186 -5.55112e-17
245 1 69.6228 169.748 -5.55112e-17
246 1 85.1622 11.8477 -5.55112e-17
247 1 212.164 61.0492 -5.55112e-17
248 1 124.226 178.61 -5.55112e-17
249 1 2.44731 60.9415 -5.55112e-17
250 2 126.227 44.0885 -5.55112e-17
251 1 185.742 214.467 -5.55112e-17
252 1 146.995 201.411 -5.55112e-17
253 1 71.8346 159.825 -5.55112e-17
254 2 69.2121 172.899 -5.55112e-17
255 1 64.9158 41.3647 -5.55112e-17
256 1 173.353 174.342 -5.55112e-17
257 1 112.022 62.9148 -5.55112e-17
258 2 209.937 182.787 -5.55112e-17
259 1 205.511 160.711 -5.55112e-17
260 1 51.9453 113.347 -5.55112e-17
261 1 102.491 143.772 -5.55112e-17
262 1 186.167 84.1896 -5.55112e-17
263 1 61.4308 12.29 -5.55112e-17
264 1 71.2384 181.944 -5.55112e-17
265 1 154.461 24.5215 -5.55112e-17
266 1 149.986 73.0327 -5.55112e-17
267 1 159.913 153.133 -5.55112e-17
268 1 67.848 203.825 -5.55112e-17
269 1 68.7023 11.2554 -5.55112e-17
270 1 87.1515 54.7109 -5.55112e-17
271 1 15.8425 40.3445 -5.55112e-17
272 1 191.131 188.017 -5.55112e-17
273 1 186.592 88.3248 -5.55112e-17
274 2 141.179 144.891 -5.55112e-17
275 1 166.62 142.399 -5.55112e-17
276 2 132.327 21.7402 -5.55112e-17
277 2 184.974 202.224 -5.55112e-17
278 1 184.006 196.103 -5.55112e-17
279 2 180.945 36.8149 -5.55112e-17
280 1 124.838 25.2858 -5.55112e-17
281 1 75.2745 0.821487 -5.55112e-17
282 1 189.924 24.5933 -5.55112e-17
283 1 16.0892 179.438 -5.55112e-17
284 1 94.8354 149.725 -5.55112e-17
285 1 21.1819 202.06 -5.55112e-17
286 2 92.8763 59.1355 -5.55112e-17
287 1 106.104 176.202 -5.55112e-17
288 1 80.5094 182.126 -5.55112e-17
289 1 12.4883 152.362 -5.55112e-17
290 1 139.616 172.827 -5.55112e-17
291 1 101.481 38.069 -5.55112e-17
292 2 165.251 159.937 -5.55112e-17
293 2 2.32899 105.208 -5.55112e-17
294 1 115.667 110.839 -5.55112e-17
295 1 155.818 100.806 -5.55112e-17
296 1 87.7891 186.253 -5.55112e-17
297 1 171.109 148.084 -5.55112e-17
298 1 97.8025 27.306 -5.55112e-17
299 1 115.589 195.064 -5.55112e-17
300 2 145.685 50.8012 -5.55112e-17
301 1 176.01 3.9391 -5.55112e-17
302 1 84.5661 9.3219 -5.55112e-17
303 2 137.117 40.1839 -5.55112e-17
304 2 55.6067 58.4194 -5.55112e-17
305 1 5.10135 205.427 -5.55112e-17
306 1 74.0445 138.179 -5.55112e-17
307 1 66.5542 151.656 -5.55112e-17
308 1 154.493 124.719 -5.55112e-17
309 2 108.705 174.826 -5.55112e-17
310 1 31.4982 154.563 -5.55112e-17
311 1 200.41 176.314 -5.55112e-17
312 1 210.052 134.443 -5.55112e-17
313 2 186.221 9.25856 -5.55112e-17
314 1 216.001 167.888 -5.55112e-17
315 1 126.572 158.171 -5.55112e-17
316 1 189.125 211.519 -5.55112e-17
317 1 114.923 113.32 -5.55112e-17
318 1 90.8013 2.71896 -5.55112e-17
319 1 78.9855 188.191 -5.55112e-17
320 1 177.111 184.363 -5.55112e-17
321 1 46.7094 186.538 -5.55112e-17
322 1 99.2986 86.1853 -5.55112e-17
323 1 47.2974 11.9977 -5.55112e-17
324 1 153.045 130.316 -5.55112e-17
325 1 78.9636 172.8 -5.55112e-17
326 1 37.2869 148.003 -5.55112e-17
327 2 115.198 92.1343 -5.55112e-17
328 1 86.7309 102.886 -5.55112e-17
329 2 66.7057 100.295 -5.55112e-17
330 1 193.152 176.395 -5.55112e-17
331 1 98.0896 8.85574 -5.55112e-17
332 2 85.643 1.65943 -5.55112e-17
333 1 194.953 121.705 -5.55112e-17
334 1 111.231 14.7431 -5.55112e-17
335 1 123.817 101.405 -5.55112e-17
336 1 200.802 79.7858 -5.55112e-17
337 1 25.3021 40.4651 -5.55112e-17
338 1 143.148 45.263 -5.55112e-17
339 1 25.6972 198.309 -5.55112e-17
340 1 82.3278 216.496 -5.55112e-17
341 1 174.68 32.1936 -5.55112e-17
342 1 162.847 169.259 -5.55112e-17
343 1 83.6447 89.2813 -5.55112e-17
344 1 90.6375 48.1077 -5.55112e-17
345 1 92.4799 64.0739 -5.55112e-17
346 1 9.95903 16.6856 -5.55112e-17
347 1 75.4023 68.4457 -5.55112e-17
348 1 116.738 51.3608 -5.55112e-17
349 1 189.585 72.5807 -5.55112e-17
350 2 55.9966 43.1066 -5.55112e-17
351 1 23.1074 116.267 -5.55112e-17
352 1 31.7751 160.534 -5.55112e-17
353 1 66.865 95.3166 -5.55112e-17
354 1 139.643 19.4024 -5.55112e-17
355 1 205.802 29.0807 -5.55112e-17
356 1 113.018 157.448 -5.55112e-17
357 1 169.528 177.576 -5.55112e-17
358 1 36.7123 51.1657 -5.55112e-17
359 1 78.1904 180.788 -5.55112e-17
360 1 13.9927 31.8573 -5.55112e-17
361 1 162.413 176.538 -5.55112e-17
362 1 53.9874 168.465 -5.55112e-17
363 1 17.7689 114.375 -5.55112e-17
364 2 207.953 33.9412 -5.55112e-17
365 1 61.6671 106.061 -5.55112e-17
366 1 139.327 152.033 -5.55112e-17
367 1 57.2709 108.208 -5.55112e-17
368 1 86.9145 29.5205 -5.55112e-17
369 2 35.2787 122.588 -5.55112e-17
370 1 183.586 38.2877 -5.55112e-17
371 1 85.8681 213.338 -5.55112e-17
372 2 202.834 42.4168 -5.55112e-17
373 2 181.386 188.15 -5.55112e-17
374 1 45.6712 83.6434 -5.55112e-17
375 1 136.751 211.457 -5.55112e-17
376 1 167.493 144.945 -5.55112e-17
377 1 124.889 172.865 -5.55112e-17
378 1 4.73357 96.2449 -5.55112e-17
379 1 72.143 136.392 -5.55112e-17
380 1 166.067 4.01149 -5.55112e-17
381 1 176.659 207.168 -5.55112e-17
382 1 162.059 123.35 -5.55112e-17
383 1 139.105 212.866 -5.55112e-17
384 1 218.962 177.69 -5.55112e-17
385 1 80.6986 71.5549 -5.55112e-17
386 2 215.97 67.9318 -5.55112e-17
387 1 207.109 165.104 -5.55112e-17
388 1 136.237 65.5669 -5.55112e-17
389 1 108.505 84.2039 -5.55112e-17
390 2 186.057 157.279 -5.55112e-17
391 2 28.5295 208.567 -5.55112e-17
392 1 162.963 153.368 -5.55112e-17
393 1 164.51 110.845 -5.55112e-17
394 1 126.855 167.39 -5.55112e-17
395 1 52.8864 125.823 -5.55112e-17
396 1 92.716 9.99463 -5.55112e-17
397 1 59.1851 89.4014 -5.55112e-17
398 1 120.045 64.8296 -5.55112e-17
399 1 206.148 148.591 -5.55112e-17
400 1 106.603 71.4573 -5.55112e-17
401 1 6.75865 180.641 -5.55112e-17
402 2 73.6058 91.9293 -5.55112e-17
403 1 160.827 114.842 -5.55112e-17
404 1 48.0086 40.5745 -5.55112e-17
405 1 163.175 192.169 -5.55112e-17
406 1 7.33907 125.662 -5.55112e-17
407 2 190.403 137.443 -5.55112e-17
408 1 55.3211 22.6734 -5.55112e-17
409 1 32.3708 107.142 -5.55112e-17
410 1 29.4425 102.942 -5.55112e-17
411 1 177.935 1.73044 -5.55112e-17
412 1 125.119 160.337 -5.55112e-17
413 1 48.8519 197.227 -5.55112e-17
414 1 56.486 163.822 -5.55112e-17
415 1 114.155 137.821 -5.55112e-17
416 1 1.86977 129.313 -5.55112e-17
417 1 156.858 160.742 -5.55112e-17
418 2 159.933 44.4324 -5.55112e-17
419 1 103.501 64.8263 -5.55112e-17
420 2 9.01896 27.3191 -5.55112e-17
421 1 159.223 140.477 -5.55112e-17
422 1 42.1569 164.453 -5.55112e-17
423 2 191.515 112.019 -5.55112e-17
424 1 100.309 53.0349 -5.55112e-17
425 1 185.905 65.5114 -5.55112e-17
426 1 164.092 174.238 -5.55112e-17
427 1 2.78154 35.3794 -5.55112e-17
428 1 124.266 41.6061 -5.55112e-17
429 1 165.616 205.452 -5.55112e-17
430 1 126.097 180.655 -5.55112e-17
431 1 208.71 218.179 -5.55112e-17
432 1 144.74 60.5911 -5.55112e-17
433 1 178.735 26.1745 -5.55112e-17
434 1 40.5924 142.756 -5.55112e-17
435 1 152.955 188.946 -5.55112e-17
436 1 177.82 79.4708 -5.55112e-17
437 1 11.0315 101.08 -5.55112e-17
438 2 114.973 62.5236 -5.55112e-17
439 1 88.9671 4.16588 -5.55112e-17
440 1 9.00987 105.491 -5.55112e-17
441 1 122.513 160.135 -5.55112e-17
442 1 11.5192 65.0949 -5.55112e-17
443 1 67.881 177.246 -5.55112e-17
444 1 35.3273 117.393 -5.55112e-17
445 1 109.591 23.8127 -5.55112e-17
446 1 173.331 73.0507 -5.55112e-17
447 1 27.5755 9.65079 -5.55112e-17
448 1 203.933 6.56592 -5.55112e-17
449 1 140.247 67.7833 -5.55112e-17
450 1 119.117 114.488 -5.55112e-17
451 1 131.303 95.4722 -5.55112e-17
452 1 130.592 165.175 -5.55112e-17
453 1 120.058 170.447 -5.55112e-17
454 1 145.544 164.502 -5.55112e-17
455 1 84.0471 147.212 -5.55112e-17
456 1 130.003 151.46 -5.55112e-17
457 1 17.7978 217.073 -5.55112e-17
458 1 118.371 8.32283 -5.55112e-17
459 1 39.153 149.972 -5.55112e-17
460 1 19.0035 80.0489 -5.55112e-17
461 1 62.2008 77.8169 -5.55112e-17
462 1 20.2569 164.769 -5.55112e-17
463 1 75.4969 147.95 -5.55112e-17
464 1 156.914 144.852 -5.55112e-17
465 1 189.268 172.762 -5.55112e-17
466 1 151.513 17.7176 -5.55112e-17
467 1 185.012 136.044 -5.55112e-17
468 1 12.0232 125.889 -5.55112e-17
469 1 181.104 8.41853 -5.55112e-17
470 1 15.3068 25.5723 -5.55112e-17
471 1 197.966 154.707 -5.55112e-17
472 1 130.859 119.088 -5.55112e-17
473 1 190.454 192.714 -5.55112e-17
474 1 196.41 213.886 -5.55112e-17
475 1 92.4395 136.026 -5.55112e-17
476 2 209.94 160.334 -5.55112e-17
477 1 218.071 197.727 -5.55112e-17
478 1 130.4 142.303 -5.55112e-17
479 1 161.738 198.058 -5.55112e-17
480 1 152.296 95.3297 -5.55112e-17
481 1 207.668 143.903 -5.55112e-17
482 1 92.1507 28.6485 -5.55112e-17
483 1 70.7813 6.2663 -5.55112e-17
484 2 73.8668 120.702 -5.55112e-17
485 1 19.2971 210.734 -5.55112e-17
486 1 9.32681 30.0726 -5.55112e-17
487 1 58.3135 160.643 -5.55112e-17
488 1 53.3941 35.1767 -5.55112e-17
489 1 9.28471 179.033 -5.55112e-17
490 1 161.521 42.1244 -5.55112e-17
491 1 166.15 71.5174 -5.55112e-17
492 1 146.448 70.4482 -5.55112e-17
493 1 105.169 210.717 -5.55112e-17
494 1 127.742 155.973 -5.55112e-17
495 1 24.1592 81.4689 -5.55112e-17
496 2 185.596 138.932 -5.55112e-17
497 1 198.758 134.655 -5.55112e-17
498 1 178.443 167.363 -5.55112e-17
499 2 158.079 52.8441 -5.55112e-17
500 1 32.723 124.347 -5.55112e-17
501 2 215.109 143.09 -5.55112e-17
502 2 20.403 145.897 -5.55112e-17
503 1 121.963 151.239 -5.55112e-17
504 1 137.464 191.788 -5.55112e-17
505 1 202.472 130.664 -5.55112e-17
506 1 15.2299 113.649 -5.55112e-17
507 1 125.042 199.612 -5.55112e-17
508 1 33.4846 87.5578 -5.55112e-17
509 2 69.2168 143.854 -5.55112e-17
510 2 156.804 153.319 -5.55112e-17
511 1 42.1576 11.289 -5.55112e-17
512 2 59.5511 168.378 -5.55112e-17
513 1 127.573 64.4079 -5.55112e-17
514 1 12.9178 76.35 -5.55112e-17
515 1 94.9373 34.0455 -5.55112e-17
516 1 210.521 107.029 -5.55112e-17
517 1 186.555 207.25 -5.55112e-17
518 2 143.713 116.837 -5.55112e-17
519 1 39.2815 113.86 -5.55112e-17
520 2 211.585 89.7298 -5.55112e-17
521 1 123.384 50.4528 -5.55112e-17
522 1 105.949 184.248 -5.55112e-17
523 1 64.6023 18.9188 -5.55112e-17
524 1 32.8061 40.7766 -5.55112e-17
525 1 203.682 206.409 -5.55112e-17
526 1 38.5988 59.0299 -5.55112e-17
527 1 88.6227 88.823 -5.55112e-17
528 1 49.0231 64.3196 -5.55112e-17
529 1 51.1835 156.67 -5.55112e-17
530 1 71.7857 3.56772 -5.55112e-17
531 1 65.5984 109.165 -5.55112e-17
532 1 32.5756 128.827 -5.55112e-17
533 1 102.42 40.5866 -5.55112e-17
534 1 213.872 218.683 -5.55112e-17
535 1 47.1815 14.7264 -5.55112e-17
536 1 143.605 10.9739 -5.55112e-17
537 1 44.355 50.1577 -5.55112e-17
538 1 32.8325 19.341 -5.55112e-17
539 1 15.4397 200.393 -5.55112e-17
540 1 45.8459 120.538 -5.55112e-17
541 1 24.2806 185.133 -5.55112e-17
542 1 87.0746 190.307 -5.55112e-17
543 1 101.846 73.1996 -5.55112e-17
544 1 181.805 208.199 -5.55112e-17
545 1 201.915 128.38 -5.55112e-17
546 1 152.149 209.604 -5.55112e-17
547 1 32.5164 53.2782 -5.55112e-17
548 1 0.652309 182.722 -5.55112e-17
549 1 134.428 67.6121 -5.55112e-17
550 2 175.034 65.4351 -5.55112e-17
551 2 101.466 12.0446 -5.55112e-17
552 2 108.022 164.962 -5.55112e-17
553 1 90.8258 112.934 -5.55112e-17
554 1 80.8635 176.901 -5.55112e-17
555 2 71.9112 101.936 -5.55112e-17
556 1 196.183 15.7642 -5.55112e-17
557 1 92.5529 159.556 -5.55112e-17
558 1 210.77 155.155 -5.55112e-17
559 1 44.4967 68.2557 -5.55112e-17
560 1 184.107 88.7724 -5.55112e-17
561 1 190.522 147.572 -5.55112e-17
562 1 74.2024 211.112 -5.55112e-17
563 2 204.054 158.511 -5.55112e-17
564 1 203.068 161.194 -5.55112e-17
565 1 2.92228 97.7781 -5.55112e-17
566 1 134.163 40.3182 -5.55112e-17
567 1 122.119 29.6233 -5.55112e-17
568 1 204.316 89.6327 -5.55112e-17
569 1 78.1443 140.14 -5.55112e-17
570 1 185.396 25.7889 -5.55112e-17
571 1 148.065 119.728 -5.55112e-17
572 1 159.192 122.006 -5.55112e-17
573 1 95.3621 46.7668 -5.55112e-17
574 1 126.409 144.282 -5.55112e-17
575 1 201.074 25.093 -5.55112e-17
576 1 152.517 122.712 -5.55112e-17
577 1 77.6922 102.27 -5.55112e-17
578 1 187.467 167.683 -5.55112e-17
579 1 69.5873 8.37379 -5.55112e-17
580 1 209.225 56.06 -5.55112e-17
581 1 13.3792 135.05 -5.55112e-17
582 1 17.1828 204.724 -5.55112e-17
583 1 85.0727 194.679 -5.55112e-17
584 2 41.1509 77.0835 -5.55112e-17
585 1 78.5193 106.826 -5.55112e-17
586 1 142.472 68.4287 -5.55112e-17
587 1 134.483 196.05 -5.55112e-17
588 1 25.7473 167.497 -5.55112e-17
589 1 191.142 45.1365 -5.55112e-17
590 1 54.6533 200.721 -5.55112e-17
591 1 53.6609 179.965 -5.55112e-17
592 1 112.148 82.1748 -5.55112e-17
593 1 128.741 42.6479 -5.55112e-17
594 1 158.088 75.7483 -5.55112e-17
595 1 19.6613 135.021 -5.55112e-17
596 1 96.97 44.7822 -5.55112e-17
597 2 132.797 121.511 -5.55112e-17
598 1 212.226 135.194 -5.55112e-17
599 1 161.431 151.119 -5.55112e-17
600 1 132.298 10.5111 -5.55112e-17
601 1 12.6974 137.408 -5.55112e-17
602 1 214.282 133.294 -5.55112e-17
603 1 121.236 158.033 -5.55112e-17
604 1 18.6411 177.609 -5.55112e-17
605 2 50.0572 171.119 -5.55112e-17
606 1 132.757 37.0012 -5.55112e-17
607 2 205.198 170.32 -5.55112e-17
608 1 209.523 113.756 -5.55112e-17
609 1 200.93 151.486 -5.55112e-17
610 1 117.024 141.74 -5.55112e-17
611 1 46.6982 156.667 -5.55112e-17
612 1 188.017 48.9382 -5.55112e-17
613 1 40.9442 35.531 -5.55112e-17
614 2 10.7589 0.347661 -5.55112e-17
615 1 79.0679 137.738 -5.55112e-17
616 1 73.9651 130.954 -5.55112e-17
617 1 31.0022 178.329 -5.55112e-17
618 1 17.2121 157.811 -5.55112e-17
619 1 77.5593 54.1076 -5.55112e-17
620 1 93.52 31.8582 -5.55112e-17
621 1 169.212 60.1864 -5.55112e-17
622 1 204.634 215.556 -5.55112e-17
623 1 197.132 59.9898 -5.55112e-17
624 1 10.1002 41.2232 -5.55112e-17
625 1 10.1343 141.503 -5.55112e-17
626 1 80.8814 199.825 -5.55112e-17
627 1 180.415 126.161 -5.55112e-17
628 1 2.25649 12.1558 -5.55112e-17
629 1 93.0104 133.269 -5.55112e-17
630 2 106.376 28.4435 -5.55112e-17
631 1 199.438 195.276 -5.55112e-17
632 1 14.5944 28.7026 -5.55112e-17
633 1 207.647 177.015 -5.55112e-17
634 1 118.799 102.004 -5.55112e-17
635 1 218.821 119.285 -5.55112e-17
636 1 124.543 22.4429 -5.55112e-17
637 1 161.72 17.2088 -5.55112e-17
638 1 200.306 146.83 -5.55112e-17
639 2 131.709 42.6208 -5.55112e-17
640 1 186.951 72.3141 -5.55112e-17
641 1 108.365 14.5293 -5.55112e-17
642 1 178.486 14.0735 -5.55112e-17
643 2 38.4276 145.047 -5.55112e-17
644 1 180 60.0316 -5.55112e-17
645 1 185.14 86.4312 -5.55112e-17
646 2 67.563 146.99 -5.55112e-17
647 1 70.6736 28.9198 -5.55112e-17
648 1 120.134 41.1115 -5.55112e-17
649 2 151.264 190.881 -5.55112e-17
650 1 121.871 67.1293 -5.55112e-17
651 1 28.4417 67.8534 -5.55112e-17
652 1 151.156 173.953 -5.55112e-17
653 1 120.449 76.8388 -5.55112e-17
654 1 8.53373 50.5127 -5.55112e-17
655 2 168.361 91.9865 -5.55112e-17
656 1 95.9484 41.9889 -5.55112e-17
657 2 151.687 80.0731 -5.55112e-17
658 1 149.523 82.1102 -5.55112e-17
659 2 137.842 36.1607 -5.55112e-17
660 1 138.339 194.189 -5.55112e-17
661 1 29.5312 149.72 -5.55112e-17
662 1 217.259 214.4 -5.55112e-17
663 1 98.7555 91.0164 -5.55112e-17
664 1 154.695 137.522 -5.55112e-17
665 1 53.6198 157.825 -5.55112e-17
666 2 143.503 104.261 -5.55112e-17
667 1 99.6262 25.0649 -5.55112e-17
668 2 131.303 116.084 -5.55112e-17
669 1 16.907 71.9272 -5.55112e-17
670 1 12.7494 212.031 -5.55112e-17
671 2 112.598 199.058 -5.55112e-17
672 1 4.09582 89.47 -5.55112e-17
673 1 139.217 163.694 -5.55112e-17
674 1 74.0985 123.673 -5.55112e-17
675 1 23.3969 1.70278 -5.55112e-17
676 1 108.854 216.969 -5.55112e-17
677 1 189.012 175.784 -5.55112e-17
678 1 114.258 46.5102 -5.55112e-17
679 2 86.6003 209.821 -5.55112e-17
680 1 53.323 117.999 -5.55112e-17
681 2 34.9582 191.616 -5.55112e-17
682 1 152.05 136.744 -5.55112e-17
683 1 36.3894 13.1338 -5.55112e-17
684 1 195.605 22.7298 -5.55112e-17
685 1 16.9691 67.2024 -5.55112e-17
686 1 62.2907 203.333 -5.55112e-17
687 1 88.044 170.476 -5.55112e-17
688 1 8.19516 24.4831 -5.55112e-17
689 2 78.2344 70.4007 -5.55112e-17
690 1 99.6906 6.77139 -5.55112e-17
691 1 139.369 42.1211 -5.55112e-17
692 1 128.683 88.5932 -5.55112e-17
693 1 18.685 122.041 -5.55112e-17
694 1 31.0186 109.481 -5.55112e-17
695 1 0.970057 191.157 -5.55112e-17
696 1 131.274 178.905 -5.55112e-17
697 1 189.592 47.1785 -5.55112e-17
698 1 218.982 68.2999 -5.55112e-17
699 1 191.422 51.9377 -5.55112e-17
700 1 44.6422 149.445 -5.55112e-17
701 1 48.4148 20.2679 -5.55112e-17
702 1 142.77 49.4481 -5.55112e-17
703 2 92.2499 38.7937 -5.55112e-17
704 1 89.1251 14.9468 -5.55112e-17
705 2 188.641 86.4101 -5.55112e-17
706 1 126.911 90.273 -5.55112e-17
707 1 95.3839 159.117 -5.55112e-17
708 1 58.1174 165.717 -5.55112e-17
709 1 23.3254 51.1476 -5.55112e-17
710 1 162.557 189.873 -5.55112e-17
711 1 9.25445 114.315 -5.55112e-17
712 1 163.639 3.53444 -5.55112e-17
713 1 81.3032 171.743 -5.55112e-17
714 1 195.395 50.2455 -5.55112e-17
715 1 102.041 7.43017 -5.55112e-17
716 1 19.7014 26.9096 -5.55112e-17
717 1 197.576 139.588 -5.55112e-17
718 1 173.136 131.551 -5.55112e-17
719 2 29.9161 91.861 -5.55112e-17
720 1 93.3037 102.842 -5.55112e-17
721 1 172.353 97.6904 -5.55112e-17
722 1 206.51 92.4764 -5.55112e-17
723 2 211.21 58.0974 -5.55112e-17
724 1 174.736 158.913 -5.55112e-17
725 1 162.852 10.2381 -5.55112e-17
726 1 15.0435 7.38762 -5.55112e-17
727 1 73.6421 19.4843 -5.55112e-17
728 2 54.0857 203.997 -5.55112e-17
729 1 54.9863 139.184 -5.55112e-17
730 1 172.14 158.897 -5.55112e-17
731 1 192.385 86.9635 -5.55112e-17
732 1 137.959 105.476 -5.55112e-17
733 1 4.02589 48.667 -5.55112e-17
734 1 130.966 52.1495 -5.55112e-17
735 1 15.0716 162.121 -5.55112e-17
736 2 88.8674 199.5 -5.55112e-17
737 1 94.0317 197.695 -5.55112e-17
738 1 153.379 169.674 -5.55112e-17
739 1 190.909 185.738 -5.55112e-17
740 1 3.2806 92.0005 -5.55112e-17
741 2 81.6364 36.0438 -5.55112e-17
742 1 10.4184 168.889 -5.55112e-17
743 1 50.3363 1.4804 -5.55112e-17
744 2 137.005 76.9031 -5.55112e-17
745 1 115.738 3.96809 -5.55112e-17
746 1 87.7926 178.854 -5.55112e-17
747 2 76.425 91.5379 -5.55112e-17
748 1 118.798 212.27 -5.55112e-17
749 1 156.616 48.232 -5.55112e-17
750 1 50.6396 130.528 -5.55112e-17
751 1 116.951 24.0309 -5.55112e-17
752 1 142.811 198.639 -5.55112e-17
753 1 84.9981 81.7657 -5.55112e-17
754 1 213.5 195.973 -5.55112e-17
755 1 16.6036 120.908 -5.55112e-17
756 2 7.36205 203.137 -5.55112e-17
757 1 186.594 141.599 -5.55112e-17
758 1 102.012 188.736 -5.55112e-17
759 1 215.618 196.91 -5.55112e-17
760 1 165.661 18.4772 -5.55112e-17
761 1 92.6634 69.3073 -5.55112e-17
762 1 76.3544 33.414 -5.55112e-17
763 1 65.9068 75.3758 -5.55112e-17
764 2 59.4075 148.766 -5.55112e-17
765 1 152.748 182.456 -5.55112e-17
766 1 50.9976 218.036 -5.55112e-17
767 1 92.4071 142.612 -5.55112e-17
768 1 181.432 68.0118 -5.55112e-17
769 1 175.008 127.367 -5.55112e-17
770 2 47.9009 43.576 -5.55112e-17
771 1 49.3722 86.8294 -5.55112e-17
772 1 52.1047 69.7474 -5.55112e-17
773 1 68.5543 34.6947 -5.55112e-17
774 1 107.51 167.622 -5.55112e-17
775 1 38.2172 111.365 -5.55112e-17
776 1 110.037 113.841 -5.55112e-17
777 1 154.146 55.8946 -5.55112e-17
778 1 39.2101 86.784 -5.55112e-17
779 1 92.4782 182.36 -5.55112e-17
780 1 213.189 80.4999 -5.55112e-17
781 1 19.9323 76.3722 -5.55112e-17
782 1 68.1639 92.4018 -5.55112e-17
783 1 177.925 95.7867 -5.55112e-17
784 2 169.587 22.0876 -5.55112e-17
785 1 92.9279 199.957 -5.55112e-17
786 1 86.5462 143.416 -5.55112e-17
787 1 187.896 26.2634 -5.55112e-17
788 1 205.359 53.858 -5.55112e-17
789 2 1.69747 56.1438 -5.55112e-17
790 1 184.68 124.107 -5.55112e-17
791 2 94.7542 217.344 -5.55112e-17
792 2 57.3231 71.278 -5.55112e-17
793 2 122.264 165.545 -5.55112e-17
794 1 92.2524 34.06 -5.55112e-17
795 1 51.6512 153.378 -5.55112e-17
796 1 97.8149 190.534 -5.55112e-17
797 1 94.0287 205.119 -5.55112e-17
798 2 108.548 120.028 -5.55112e-17
799 2 216.165 17.9439 -5.55112e-17
800 2 154.284 204.29 -5.55112e-17
801 1 12.0352 62.3549 -5.55112e-17
802 1 139.064 89.4212 -5.55112e-17
803 1 66.5366 16.8616 -5.55112e-17
804 2 149.584 19.9956 -5.55112e-17
805 1 164.232 141.451 -5.55112e-17
806 1 8.81829 176.514 -5.55112e-17
807 2 213.01 27.593 -5.55112e-17
808 1 94.5135 172.915 -5.55112e-17
809 2 41.8454 171.961 -5.55112e-17
810 1 154.113 48.7695 -5.55112e-17
811 1 71.5645 195.745 -5.55112e-17
812 1 175.361 192.004 -5.55112e-17
813 2 188.815 92.5601 -5.55112e-17
814 1 105.654 120.113 -5.55112e-17
815 1 205.629 45.4232 -5.55112e-17
816 1 94.2497 44.3893 -5.55112e-17
817 1 57.5106 83.8233 -5.55112e-17
818 1 209.323 120.386 -5.55112e-17
819 1 82.929 178.607 -5.55112e-17
820 1 66.8263 165.742 -5.55112e-17
821 1 78.0156 62.2729 -5.55112e-17
822 2 98.1228 102.812 -5.55112e-17
823 2 147.681 96.5864 -5.55112e-17
824 1 44.1886 52.4781 -5.55112e-17
825 1 39.4992 80.1036 -5.55112e-17
826 1 107.667 93.339 -5.55112e-17
827 1 22.9858 113.64 -5.55112e-17
828 1 217.773 33.0339 -5.55112e-17
829 1 113.322 79.8984 -5.55112e-17
830 1 193.35 136.426 -5.55112e-17
831 1 9.80729 108 -5.55112e-17
832 1 140.729 84.737 -5.55112e-17
833 1 57.1719 115.392 -5.55112e-17
834 1 214.367 75.998 -5.55112e-17
835 1 192.451 145.205 -5.55112e-17
836 1 51.6124 87.8383 -5.55112e-17
837 1 108.833 103.875 -5.55112e-17
838 1 61.1086 111.546 -5.55112e-17
839 2 168.828 196.28 -5.55112e-17
840 1 123.425 27.2648 -5.55112e-17
841 2 117.033 175.048 -5.55112e-17
842 1 62.7654 40.292 -5.55112e-17
843 2 74.2424 46.0973 -5.55112e-17
844 1 40.4527 127.971 -5.55112e-17
845 1 51.1861 44.4333 -5.55112e-17
846 1 43.7448 95.5633 -5.55112e-17
847 1 125.4 123.245 -5.55112e-17
848 1 190.953 177.571 -5.55112e-17
849 1 191.501 207.685 -5.55112e-17
850 1 94.2956 74.6446 -5.55112e-17
851 1 201.548 125.686 -5.55112e-17
852 1 83.4989 187.236 -5.55112e-17
853 1 163.984 171.968 -5.55112e-17
854 1 100.821 98.367 -5.55112e-17
855 1 201.163 17.1223 -5.55112e-17
856 1 158.832 146.357 -5.55112e-17