ITEM: TIMESTEP
0
ITEM: NUMBER OF ATOMS
7200
ITEM: BOX BOUNDS xy xz yz pp pp pp
0.0000000000000000e+00 2.1900000000000000e+02 0.0000000000000000e+00
0.0000000000000000e+00 2.1900000000000000e+02 0.0000000000000000e+00
-3.6499999999999999e-01 3.6499999999999999e-01 0.0000000000000000e+00
ITEM: ATOMS id type x y z
1 1 30.4028 79.3157 -5.55112e-17
2 1 60.7547 119.887 -5.55112e-17
3 1 198.078 156.094 -5.55112e-17
4 1 54.5996 75.6565 -5.55112e-17
5 1 38.998 134.73 -5.55112e-17
6 1 80.4764 216.908 -5.55112e-17
7 1 215.576 25.6261 -5.55112e-17
8 2 15.7658 1.11937 -5.55112e-17
9 1 67.3082 101.529 -5.55112e-17
10 2 162.915 115.161 -5.55112e-17
11 1 207.098 90.8439 -5.55112e-17
12 1 123.566 116.39 -5.55112e-17
13 2 59.4294 113.744 -5.55112e-17
14 1 69.9552 154.383 -5.55112e-17
15 1 96.4649 75.2448 -5.55112e-17
16 2 126.667 176.172 -5.55112e-17
17 1 147.418 116.979 -5.55112e-17
18 2 15.4142 41.9945 -5.55112e-17
19 1 34.8244 75.7548 -5.55112e-17
20 1 26.9338 173.089 -5.55112e-17
21 1 87.9583 92.7235 -5.55112e-17
22 2 201.581 0.0530128 -5.55112e-17
23 2 84.5211 198.45 -5.55112e-17
24 1 49.7327 217.836 -5.55112e-17
25 1 64.7667 89.0677 -5.55112e-17
26 2 161.142 54.2627 -5.55112e-17
27 1 37.3469 197.9 -5.55112e-17
28 2 151.825 91.901 -5.55112e-17
29 1 96.7096 137.465 -5.55112e-17
30 1 150.297 189.153 -5.55112e-17
31 1 196.077 179.92 -5.55112e-17
32 1 37.5325 63.5424 -5.55112e-17
33 1 187.26 28.9474 -5.55112e-17
34 1 43.7872 31.1667 -5.55112e-17
35 1 17.3531 92.3769 -5.55112e-17
36 1 216.529 61.4338 -5.55112e-17
37 2 163.125 154.317 -5.55112e-17
38 1 113.483 189.873 -5.55112e-17
39 1 98.2147 171.38 -5.55112e-17
40 1 56.3725 24.4473 -5.55112e-17
41 1 129.836 129.409 -5.55112e-17
42 1 128.967 61.7238 -5.55112e-17
43 1 56.7535 94.4417 -5.55112e-17
44 1 12.0031 26.2216 -5.55112e-17
45 1 103.273 17.3818 -5.55112e-17
46 1 119.245 23.7657 -5.55112e-17
47 1 17.6662 199.167 -5.55112e-17
48 2 18.5885 109.159 -5.55112e-17
49 1 144.666 168.307 -5.55112e-17
50 1 197.727 150.763 -5.55112e-17
51 1 38.1006 26.8313 -5.55112e-17
52 1 40.8518 53.6814 -5.55112e-17
53 1 142.059 48.9438 -5.55112e-17
54 1 170.014 6.0924 -5.55112e-17
55 1 104.298 117.105 -5.55112e-17
56 1 26.1483 205.482 -5.55112e-17
57 2 208.589 63.0608 -5.55112e-17
58 1 78.7385 34.1885 -5.55112e-17
59 1 135.968 41.0999 -5.55112e-17
60 2 32.3642 131.447 -5.55112e-17
61 2 39.803 75.159 -5.55112e-17
62 1 102.972 87.7203 -5.55112e-17
63 1 72.1355 166.086 -5.55112e-17
64 1 142.558 27.6476 -5.55112e-17
65 1 125.424 179.046 -5.55112e-17
66 1 163.419 97.1068 -5.55112e-17
67 1 80.9554 73.8956 -5.55112e-17
68 1 140.043 170.442 -5.55112e-17
69 1 58.4885 17.8261 -5.55112e-17
70 1 140.65 43.5424 -5.55112e-17
71 1 92.3163 65.5902 -5.55112e-17
72 1 150.183 199.142 -5.55112e-17
73 1 101.819 52.4798 -5.55112e-17
74 1 183.274 124.426 -5.55112e-17
75 2 218.825 99.2322 -5.55112e-17
76 1 87.4787 207.284 -5.55112e-17
77 1 22.3056 44.0719 -5.55112e-17
78 1 133.773 200.555 -5.55112e-17
79 2 78.9499 72.3285 -5.55112e-17
80 1 135.945 5.92465 -5.55112e-17
81 1 34.4513 188.146 -5.55112e-17
82 1 207.106 211.007 -5.55112e-17
83 2 72.1361 87.4964 -5.55112e-17
84 1 172.734 105.476 -5.55112e-17
85 1 149.577 38.2623 -5.55112e-17
86 1 180.359 169.854 -5.55112e-17
87 1 157.18 4.3731 -5.55112e-17
88 1 82.2055 153.743 -5.55112e-17
89 2 28.694 27.2551 -5.55112e-17
90 2 109.024 97.4405 -5.55112e-17
91 1 113.987 165.503 -5.55112e-17
92 2 19.8339 130.678 -5.55112e-17
93 1 139.687 15.2235 -5.55112e-17
94 2 190.221 113.94 -5.55112e-17
95 1 180.208 70.7631 -5.55112e-17
96 1 202.559 71.5506 -5.55112e-17
97 1 46.2358 90.6397 -5.55112e-17
98 1 155.361 199.576 -5.55112e-17
99 1 114.972 22.9251 -5.55112e-17
100 1 60.4395 23.3632 -5.55112e-17
101 1 155.319 187.433 -5.55112e-17
102 1 34.6574 104.982 -5.55112e-17
103 1 214.168 9.35659 -5.55112e-17
104 1 164.39 103.322 -5.55112e-17
105 1 93.9752 75.2896 -5.55112e-17
106 1 121.207 50.9164 -5.55112e-17
107 2 146.647 112.144 -5.55112e-17
108 1 155.842 155.95 -5.55112e-17
109 1 85.516 83.0361 -5.55112e-17
110 1 12.6663 112.56 -5.55112e-17
111 1 156.364 26.2084 -5.55112e-17
112 1 140.485 55.5909 -5.55112e-17
113 1 201.328 109.918 -5.55112e-17
114 1 177.974 181.767 -5.55112e-17
115 1 28.9338 135.989 -5.55112e-17
116 2 52.6137 217.862 -5.55112e-17
117 1 28.02 103.98 -5.55112e-17
118 1 113.8 151.036 -5.55112e-17
119 2 99.5995 12.0508 -5.55112e-17
120 1 92.9214 2.52334 -5.55112e-17
121 1 158.739 203.527 -5.55112e-17
122 1 125.872 152.472 -5.55112e-17
123 1 176.207 179.909 -5.55112e-17
124 1 54.4662 65.631 -5.55112e-17
125 1 210.208 40.1171 -5.55112e-17
126 1 128.31 92.9607 -5.55112e-17
127 1 145.332 214.779 -5.55112e-17
128 1 108.604 115.417 -5.55112e-17
129 1 12.6628 215.941 -5.55112e-17
130 1 32.9139 94.3067 -5.55112e-17
131 1 166.003 96.683 -5.55112e-17
132 2 132.817 184.947 -5.55112e-17
133 1 163.838 21.085 -5.55112e-17
134 1 121.115 91.956 -5.55112e-17
135 1 113.935 92.1074 -5.55112e-17
136 1 32.9876 12.2956 -5.55112e-17
137 1 202.234 216.009 -5.55112e-17
138 1 215.698 148.089 -5.55112e-17
139 1 173.644 158.016 -5.55112e-17
140 2 187.023 148.103 -5.55112e-17
141 1 89.7113 77.7245 -5.55112e-17
142 2 103.353 60.7488 -5.55112e-17
143 1 127.023 104.481 -5.55112e-17
144 2 157.839 198.669 -5.55112e-17
145 1 87.0549 54.4405 -5.55112e-17
146 1 39.3817 90.6004 -5.55112e-17
147 1 144.527 49.7865 -5.55112e-17
148 1 209.039 147.062 -5.55112e-17
149 1 141.448 64.2317 -5.55112e-17
150 1 76.3529 123.529 -5.55112e-17
151 1 193.108 100.881 -5.55112e-17
152 1 88.7691 116.018 -5.55112e-17
153 2 10.5483 152.856 -5.55112e-17
154 1 189.398 145.73 -5.55112e-17
155 1 177.822 155.218 -5.55112e-17
156 2 47.1763 164.493 -5.55112e-17
157 1 153.692 39.8215 -5.55112e-17
158 1 1.70642 6.3792 -5.55112e-17
159 1 148.404 45.3744 -5.55112e-17
160 1 173.255 0.33921 -5.55112e-17
161 1 48.1081 27.7215 -5.55112e-17
162 1 202.169 200.843 -5.55112e-17
163 1 115.18 36.9553 -5.55112e-17
164 1 17.7643 113.339 -5.55112e-17
165 1 207.013 164.581 -5.55112e-17
166 2 3.77383 85.9288 -5.55112e-17
167 1 163.33 12.9336 -5.55112e-17
168 1 198.017 32.7855 -5.55112e-17
169 1 118.222 65.2404 -5.55112e-17
170 1 47.9165 68.211 -5.55112e-17
171 1 70.7614 71.3634 -5.55112e-17
172 1 182.788 95.6915 -5.55112e-17
173 1 203.494 140.03 -5.55112e-17
174 1 166.935 217.119 -5.55112e-17
175 2 7.95968 79.276 -5.55112e-17
176 1 88.9197 31.546 -5.55112e-17
177 2 176.04 177.213 -5.55112e-17
178 1 190.025 40.0122 -5.55112e-17
179 1 203.497 155.066 -5.55112e-17
180 1 42.1884 129.561 -5.55112e-17
181 1 36.9897 20.9325 -5.55112e-17
182 2 95.8216 217.065 -5.55112e-17
183 1 53.2854 172.485 -5.55112e-17
184 1 124.601 185.816 -5.55112e-17
185 2 48.9657 19.431 -5.55112e-17
186 2 78.3764 81.2619 -5.55112e-17
187 1 81.0273 60.825 -5.55112e-17
188 1 64.8707 31.2162 -5.55112e-17
189 1 153.353 182.103 -5.55112e-17
190 2 43.3372 192.183 -5.55112e-17
191 1 9.46065 109.496 -5.55112e-17
192 2 136.834 146.404 -5.55112e-17
193 2 4.08688 73.3525 -5.55112e-17
194 1 197.444 70.6436 -5.55112e-17
195 1 65.2929 13.5935 -5.55112e-17
196 1 76.6891 100.281 -5.55112e-17
197 1 171.238 80.0319 -5.55112e-17
198 2 13.1558 131.3 -5.55112e-17
199 1 102.278 10.2241 -5.55112e-17
200 1 17.3919 99.0714 -5.55112e-17
201 2 113.878 120.518 -5.55112e-17
202 1 130.098 133.048 -5.55112e-17
203 1 2.63731 31.0021 -5.55112e-17
204 1 130.334 159.12 -5.55112e-17
205 2 30.1623 217.522 -5.55112e-17
206 1 176.268 200.68 -5.55112e-17
207 1 67.6597 78.0054 -5.55112e-17
208 1 45.6484 112.65 -5.55112e-17
209 1 172.447 148.605 -5.55112e-17
210 1 54.5729 209.582 -5.55112e-17
211 2 56.6331 131.371 -5.55112e-17
212 1 98.4246 143.265 -5.55112e-17
213 1 67.7662 99.0517 -5.55112e-17
214 1 159.212 160.502 -5.55112e-17
215 1 14.6029 155.935 -5.55112e-17
216 1 84.7004 71.748 -5.55112e-17
217 1 208.544 116.692 -5.55112e-17
218 2 5.35673 179.464 -5.55112e-17
219 1 84.5295 8.27817 -5.55112e-17
220 2 133.64 43.1951 -5.55112e-17
221 1 111.359 92.2019 -5.55112e-17
222 1 75.1968 196.163 -5.55112e-17
223 1 94.7197 157.616 -5.55112e-17
224 2 173.668 21.8291 -5.55112e-17
225 1 57.7941 175.44 -5.55112e-17
226 1 188.113 11.1126 -5.55112e-17
227 2 71.5641 1.27472 -5.55112e-17
228 1 57.4411 79.2144 -5.55112e-17
229 1 208.862 98.3742 -5.55112e-17
230 1 13.7448 11.0433 -5.55112e-17
231 1 72.066 159.028 -5.55112e-17
232 1 125.892 29.887 -5.55112e-17
233 1 13.3757 170.534 -5.55112e-17
234 1 198.06 107.654 -5.55112e-17
235 1 121.676 19.956 -5.55112e-17
236 1 139.655 203.992 -5.55112e-17
237 1 202.303 207.581 -5.55112e-17
238 1 146.569 58.8892 -5.55112e-17
239 2 27.9364 162.548 -5.55112e-17
240 1 36.9232 149.124 -5.55112e-17
241 2 185.553 206.534 -5.55112e-17
242 2 158.32 157.768 -5.55112e-17
243 2 24.0723 95.9473 -5.55112e-17
244 1 9.46903 137.803 -5.55112e-17
245 1 168.154 162.165 -5.55112e-17
246 1 134.767 56.076 -5.55112e-17
247 1 28.285 53.8585 -5.55112e-17
248 1 143.629 189.848 -5.55112e-17
249 1 39.8888 80.6079 -5.55112e-17
250 2 58.9106 161.689 -5.55112e-17
251 1 138.044 137.175 -5.55112e-17
252 1 120.583 141.669 -5.55112e-17
253 1 216.077 167.192 -5.55112e-17
254 2 59.2899 3.26379 -5.55112e-17
255 1 114.587 32.027 -5.55112e-17
256 1 60.101 154.678 -5.55112e-17
257 1 41.836 135.486 -5.55112e-17
258 2 71.2372 169.016 -5.55112e-17
259 1 215.172 128.24 -5.55112e-17
260 1 171.662 77.4629 -5.55112e-17
261 1 157.488 124.969 -5.55112e-17
262 1 48.1678 153.023 -5.55112e-17
263 1 147.252 37.5615 -5.55112e-17
264 1 193.205 152.52 -5.55112e-17
265 1 29.0755 51.3971 -5.55112e-17
266 1 196.718 35.369 -5.55112e-17
267 1 157.227 79.3417 -5.55112e-17
268 1 86.656 203.125 -5.55112e-17
269 1 140.452 137.648 -5.55112e-17
270 1 74.3227 101.329 -5.55112e-17
271 1 109.308 133.694 -5.55112e-17
272 1 194.591 111.589 -5.55112e-17
273 1 215.554 33.8192 -5.55112e-17
274 2 132.921 191.392 -5.55112e-17
275 1 209.171 22.9284 -5.55112e-17
276 2 8.41513 47.5256 -5.55112e-17
277 2 73.7966 90.6127 -5.55112e-17
278 1 216.335 152.891 -5.55112e-17
279 2 155.287 32.2223 -5.55112e-17
280 1 200.425 96.4669 -5.55112e-17
281 1 26.735 42.3851 -5.55112e-17
282 1 10.0656 69.9762 -5.55112e-17
283 1 161.131 83.4012 -5.55112e-17
284 1 36.2548 141.185 -5.55112e-17
285 1 39.8396 113.25 -5.55112e-17
286 2 27.4615 56.4796 -5.55112e-17
287 1 183.066 155.124 -5.55112e-17
288 1 87.327 38.7395 -5.55112e-17
289 1 144.576 32.8797 -5.55112e-17
290 1 99.6054 53.4988 -5.55112e-17
291 1 104.941 181.711 -5.55112e-17
292 2 204.989 196.793 -5.55112e-17
293 2 18.8449 142.416 -5.55112e-17
294 1 184.707 163.362 -5.55112e-17
295 1 72.994 11.9636 -5.55112e-17
296 1 2.28306 70.8162 -5.55112e-17
297 1 44.1761 130.651 -5.55112e-17
298 1 217.243 64.0258 -5.55112e-17
299 1 57.0828 187.223 -5.55112e-17
300 2 27.4357 63.9073 -5.55112e-17
301 1 212.848 127.807 -5.55112e-17
302 1 193.239 92.5838 -5.55112e-17
303 2 179.051 158.153 -5.55112e-17
304 2 124.242 10.7997 -5.55112e-17
305 1 21.9451 93.5781 -5.55112e-17
306 1 82.3918 127.116 -5.55112e-17
307 1 188.516 166.074 -5.55112e-17
308 1 200.928 75.7321 -5.55112e-17
309 2 162.725 24.2625 -5.55112e-17
310 1 116.227 63.4362 -5.55112e-17
311 1 128.922 166.606 -5.55112e-17
312 1 118.893 62.4546 -5.55112e-17
313 2 159.633 149.39 -5.55112e-17
314 1 213.163 161.823 -5.55112e-17
315 1 12.4131 92.8795 -5.55112e-17
316 1 57.7103 49.2428 -5.55112e-17
317 1 73.5883 47.3268 -5.55112e-17
318 1 213.055 13.8858 -5.55112e-17
319 1 13.7285 90.2551 -5.55112e-17
320 1 8.27203 82.1023 -5.55112e-17
321 1 75.9237 48.1032 -5.55112e-17
322 1 110.946 10.223 -5.55112e-17
323 1 145.584 136.188 -5.55112e-17
324 1 70.8395 139.652 -5.55112e-17
325 1 145.968 48.0606 -5.55112e-17
326 1 75.4463 205.873 -5.55112e-17
327 2 144.013 76.4729 -5.55112e-17
328 1 188.389 63.1115 -5.55112e-17
329 2 17.4336 126.512 -5.55112e-17
330 1 168.437 174.47 -5.55112e-17
331 1 41.6879 169.558 -5.55112e-17
332 2 215.782 70.5051 -5.55112e-17
333 1 133.72 11.4658 -5.55112e-17
334 1 32.8581 48.5064 -5.55112e-17
335 1 39.1341 185.879 -5.55112e-17
336 1 25.3163 125.636 -5.55112e-17
337 1 120.223 17.7409 -5.55112e-17
338 1 57.3198 183.05 -5.55112e-17
339 1 125.675 27.2338 -5.55112e-17
340 1 99.7725 149.191 -5.55112e-17
341 1 64.8142 38.1924 -5.55112e-17
342 1 89.7984 132.565 -5.55112e-17
343 1 36.9698 151.839 -5.55112e-17
344 1 104.465 152.127 -5.55112e-17
345 1 168.189 22.826 -5.55112e-17
346 1 148.188 40.3814 -5.55112e-17
347 1 192.463 70.5747 -5.55112e-17
348 1 0.135359 180.458 -5.55112e-17
349 1 81.9769 23.8542 -5.55112e-17
350 2 31.4198 9.65051 -5.55112e-17
351 1 32.75 138.692 -5.55112e-17
352 1 128.209 30.3763 -5.55112e-17
353 1 175.619 140.506 -5.55112e-17
354 1 146.843 77.5338 -5.55112e-17
355 1 191.413 2.08957 -5.55112e-17
356 1 82.659 121.264 -5.55112e-17
357 1 144.395 6.28717 -5.55112e-17
358 1 213.155 94.3326 -5.55112e-17
359 1 170.063 108.388 -5.55112e-17
360 1 99.3445 200.174 -5.55112e-17
361 1 8.9895 67.4202 -5.55112e-17
362 1 135.725 72.8068 -5.55112e-17
363 1 163.477 9.98352 -5.55112e-17
364 2 88.0609 176.196 -5.55112e-17
365 1 62.1254 31.0097 -5.55112e-17
366 1 41.796 184.881 -5.55112e-17
367 1 116.11 138.886 -5.55112e-17
368 1 196.248 189.268 -5.55112e-17
369 2 28.5115 152.247 -5.55112e-17
370 1 163.451 67.2409 -5.55112e-17
371 1 171.306 82.9952 -5.55112e-17
372 2 136.529 124.045 -5.55112e-17
373 2 13.9308 73.781 -5.55112e-17
374 1 138.451 81.3281 -5.55112e-17
375 1 114.775 187.757 -5.55112e-17
376 1 154.83 5.01837 -5.55112e-17
377 1 149.778 167.693 -5.55112e-17
378 1 59.8069 199.863 -5.55112e-17
379 1 135.172 68.1967 -5.55112e-17
380 1 50.0974 83.8072 -5.55112e-17
381 1 80.2655 114.548 -5.55112e-17
382 1 62.4821 58.7718 -5.55112e-17
383 1 217.221 23.556 -5.55112e-17
384 1 106.39 211.333 -5.55112e-17
385 1 152.275 88.6655 -5.55112e-17
386 2 77.2883 178.273 -5.55112e-17
387 1 141.395 139.858 -5.55112e-17
388 1 213.249 119.969 -5.55112e-17
389 1 70.2465 151.824 -5.55112e-17
390 2 168.461 204.62 -5.55112e-17
391 2 64.6792 215.616 -5.55112e-17
392 1 130.489 44.2643 -5.55112e-17
393 1 142.784 124.749 -5.55112e-17
394 1 150.35 87.1299 -5.55112e-17
395 1 107.605 67.1278 -5.55112e-17
396 1 103.941 207.639 -5.55112e-17
397 1 168.123 44.9677 -5.55112e-17
398 1 149.927 11.1735 -5.55112e-17
399 1 67.7312 195.838 -5.55112e-17
400 1 33.0628 125.657 -5.55112e-17
401 1 65.6141 95.3938 -5.55112e-17
402 2 2.20378 105.99 -5.55112e-17
403 1 175.156 155.547 -5.55112e-17
404 1 113.067 84.4788 -5.55112e-17
405 1 162.674 85.3266 -5.55112e-17
406 1 120.149 197.939 -5.55112e-17
407 2 11.7595 15.5185 -5.55112e-17
408 1 213.926 111.592 -5.55112e-17
409 1 105.938 188.572 -5.55112e-17
410 1 13.656 85.8061 -5.55112e-17
411 1 198.481 127.674 -5.55112e-17
412 1 117.187 77.9115 -5.55112e-17
413 1 31.4454 84.555 -5.55112e-17
414 1 5.83018 2.93503 -5.55112e-17
415 1 135.998 163.709 -5.55112e-17
416 1 26.3788 191.527 -5.55112e-17
417 1 108.393 175 -5.55112e-17
418 2 199.277 148.371 -5.55112e-17
419 1 133.846 103.041 -5.55112e-17
420 2 197.224 78.8104 -5.55112e-17
421 1 122.739 2.94609 -5.55112e-17
422 1 206.884 213.418 -5.55112e-17
423 2 8.73178 22.0708 -5.55112e-17
424 1 209.742 168.103 -5.55112e-17
425 1 148.441 135.089 -5.55112e-17
426 1 214.307 205.284 -5.55112e-17
427 1 27.821 0.352174 -5.55112e-17
428 1 134.372 181.781 -5.55112e-17
429 1 9.7596 59.2307 -5.55112e-17
430 1 115.165 182.549 -5.55112e-17
431 1 60.7204 70.566 -5.55112e-17
432 1 118.913 153.848 -5.55112e-17
433 1 185.188 95.4818 -5.55112e-17
434 1 184.499 4.5353 -5.55112e-17
435 1 153.102 174.869 -5.55112e-17
436 1 116.966 173.954 -5.55112e-17
437 1 178.322 188.119 -5.55112e-17
438 2 197.164 201.79 -5.55112e-17
439 1 199.894 70.9869 -5.55112e-17
440 1 28.8848 174.907 -5.55112e-17
441 1 192.085 79.222 -5.55112e-17
442 1 210.341 126.916 -5.55112e-17
443 1 33.3981 192.477 -5.55112e-17
444 1 4.23207 146.597 -5.55112e-17
445 1 109.901 182.561 -5.55112e-17
446 1 218.555 7.07908 -5.55112e-17
447 1 153.782 128.332 -5.55112e-17
448 1 113.008 44.2492 -5.55112e-17
449 1 33.5836 116.093 -5.55112e-17
450 1 197.349 57.0386 -5.55112e-17
451 1 137.318 130.741 -5.55112e-17
452 1 186.915 80.7922 -5.55112e-17
453 1 3.65804 217.575 -5.55112e-17
454 1 201.996 175.211 -5.55112e-17
455 1 191.567 81.324 -5.55112e-17
456 1 66.481 84.7873 -5.55112e-17
457 1 148.252 160.792 -5.55112e-17
458 1 49.4557 129.215 -5.55112e-17
459 1 73.1763 118.49 -5.55112e-17
460 1 2.40795 193.194 -5.55112e-17
461 1 41.8899 89.1476 -5.55112e-17
462 1 120.426 94.2857 -5.55112e-17
463 1 163.595 35.5607 -5.55112e-17
464 1 117.724 212.621 -5.55112e-17
465 1 111.591 69.2556 -5.55112e-17
466 1 152.949 77.3994 -5.55112e-17
467 1 162.398 112.39 -5.55112e-17
468 1 39.1383 129.873 -5.55112e-17
469 1 211.399 113.108 -5.55112e-17
470 1 143.732 81.7936 -5.55112e-17
471 1 44.7035 213.307 -5.55112e-17
472 1 97.1019 150.851 -5.55112e-17
473 1 84.7239 33.9299 -5.55112e-17
474 1 100.363 60.6517 -5.55112e-17
475 1 68.2933 71.1563 -5.55112e-17
476 2 47.3058 115.023 -5.55112e-17
477 1 143.358 3.70442 -5.55112e-17
478 1 62.8867 191.709 -5.55112e-17
479 1 178.663 65.6118 -5.55112e-17
480 1 22.3973 98.3443 -5.55112e-17
481 1 123.32 27.1711 -5.55112e-17
482 1 82.9068 124.489 -5.55112e-17
483 1 95.4114 64.3523 -5.55112e-17
484 2 157.232 117.409 -5.55112e-17
485 1 205.831 108.2 -5.55112e-17
486 1 54.9753 36.2398 -5.55112e-17
487 1 109.805 22.4748 -5.55112e-17
488 1 28.3074 146.138 -5.55112e-17
489 1 35.7472 3.9601 -5.55112e-17
490 1 129.34 8.81483 -5.55112e-17
491 1 70.4978 192.127 -5.55112e-17
492 1 144.958 70.5275 -5.55112e-17
493 1 182.913 185.481 -5.55112e-17
494 1 184.875 203.138 -5.55112e-17
495 1 214.457 108.868 -5.55112e-17
496 2 138.997 172.988 -5.55112e-17
497 1 107.445 182.095 -5.55112e-17
498 1 51.3345 168.148 -5.55112e-17
499 2 78.1493 121.288 -5.55112e-17
500 1 134.341 161.314 -5.55112e-17
501 2 201.618 195.759 -5.55112e-17
502 2 177.67 184.961 -5.55112e-17
503 1 129.932 191.545 -5.55112e-17
504 1 164.489 87.0056 -5.55112e-17
505 1 165.254 122.07 -5.55112e-17
506 1 147.333 32.7256 -5.55112e-17
507 1 106.846 77.8694 -5.55112e-17
508 1 31.9433 43.6085 -5.55112e-17
509 2 180.626 181.194 -5.55112e-17
510 2 118.805 55.1761 -5.55112e-17
511 1 100.25 110.791 -5.55112e-17
512 2 22.3471 112.872 -5.55112e-17
513 1 125.979 40.6121 -5.55112e-17
514 1 201.803 149.494 -5.55112e-17
515 1 52.9909 211.68 -5.55112e-17
516 1 120.411 127.572 -5.55112e-17
517 1 9.31632 44.8239 -5.55112e-17
518 2 195.081 38.1271 -5.55112e-17
519 1 9.99111 0.54636 -5.55112e-17
520 2 53.8386 25.7669 -5.55112e-17
521 1 76.7754 214.469 -5.55112e-17
522 1 163.076 46.1959 -5.55112e-17
523 1 214.645 87.2425 -5.55112e-17
524 1 139.136 1.01889 -5.55112e-17
525 1 91.6241 101.675 -5.55112e-17
526 1 156.794 212.798 -5.55112e-17
527 1 72.0811 172.424 -5.55112e-17
528 1 70.6358 217.797 -5.55112e-17
529 1 129.174 14.885 -5.55112e-17
530 1 34.9173 10.8881 -5.55112e-17
531 1 98.7998 38.4508 -5.55112e-17
532 1 73.3173 204.08 -5.55112e-17
533 1 58.7815 105.414 -5.55112e-17
534 1 44.3348 100.056 -5.55112e-17
535 1 107.708 157.942 -5.55112e-17
536 1 9.27743 128.056 -5.55112e-17
537 1 207.616 118.847 -5.55112e-17
538 1 115.207 29.7823 -5.55112e-17
539 1 88.7247 61.412 -5.55112e-17
540 1 75.7761 193.863 -5.55112e-17
541 1 174.541 150.513 -5.55112e-17
542 1 180.57 186.563 -5.55112e-17
543 1 150.571 61.2428 -5.55112e-17
544 1 176.581 59.3848 -5.55112e-17
545 1 175.849 218.372 -5.55112e-17
546 1 174.584 96.5363 -5.55112e-17
547 1 87.352 12.6252 -5.55112e-17
548 1 120.335 112.564 -5.55112e-17
549 1 148.296 43.0094 -5.55112e-17
550 2 156.576 66.5792 -5.55112e-17
551 2 54.6835 175.265 -5.55112e-17
552 2 61.7839 106.34 -5.55112e-17
553 1 201.686 193.071 -5.55112e-17
554 1 127.492 112.889 -5.55112e-17
555 2 168.035 33.0788 -5.55112e-17
556 1 154.359 125.777 -5.55112e-17
557 1 129.806 69.0176 -5.55112e-17
558 1 191.801 141.579 -5.55112e-17
559 1 41.5204 106.956 -5.55112e-17
560 1 12.8037 104.272 -5.55112e-17
561 1 216.884 108.033 -5.55112e-17
562 1 39.255 120.787 -5.55112e-17
563 2 60.7315 212.239 -5.55112e-17
564 1 12.7575 134.238 -5.55112e-17
565 1 77.4777 50.2898 -5.55112e-17
566 1 105.516 156.278 -5.55112e-17
567 1 108.686 79.475 -5.55112e-17
568 1 102.392 198.912 -5.55112e-17
569 1 57.905 212.408 -5.55112e-17
570 1 168.589 1.92899 -5.55112e-17
571 1 65.0289 132.334 -5.55112e-17
572 1 140.145 165.421 -5.55112e-17
573 1 203.495 177.63 -5.55112e-17
574 1 102.669 169.055 -5.55112e-17
575 1 214.812 31.0727 -5.55112e-17
576 1 143.612 96.0931 -5.55112e-17
577 1 4.35068 188.374 -5.55112e-17
578 1 137.163 26.0257 -5.55112e-17
579 1 161.89 215.313 -5.55112e-17
580 1 2.18732 142.13 -5.55112e-17
581 1 164.227 168.665 -5.55112e-17
582 1 36.4772 134.455 -5.55112e-17
583 1 135.951 21.1985 -5.55112e-17
584 2 131.069 122.096 -5.55112e-17
585 1 9.46637 7.84 -5.55112e-17
586 1 176.422 125.375 -5.55112e-17
587 1 11.8262 149.661 -5.55112e-17
588 1 145.235 28.4381 -5.55112e-17
589 1 131.989 211.027 -5.55112e-17
590 1 142.69 118.449 -5.55112e-17
591 1 124.73 105.093 -5.55112e-17
592 1 9.27191 97.0818 -5.55112e-17
593 1 162.04 127.043 -5.55112e-17
594 1 97.8979 115.034 -5.55112e-17
595 1 190.279 21.2262 -5.55112e-17
596 1 183.521 14.392 -5.55112e-17
597 2 127.512 214.858 -5.55112e-17
598 1 49.4425 204.495 -5.55112e-17
599 1 213.24 75.2309 -5.55112e-17
600 1 118.749 180.992 -5.55112e-17
601 1 64.0505 180.012 -5.55112e-17
602 1 185.809 85.7694 -5.55112e-17
603 1 49.8169 145.804 -5.55112e-17
604 1 106.707 10.5487 -5.55112e-17
605 2 89.0927 192.254 -5.55112e-17
606 1 7.18277 24.7991 -5.55112e-17
607 2 23.5304 70.6904 -5.55112e-17
608 1 29.8647 73.9774 -5.55112e-17
609 1 65.9543 150.872 -5.55112e-17
610 1 104.861 171.17 -5.55112e-17
611 1 30.6082 207.779 -5.55112e-17
612 1 113.892 13.9851 -5.55112e-17
613 1 167.516 38.6882 -5.55112e-17
614 2 59.1309 89.3896 -5.55112e-17
615 1 81.2005 81.3596 -5.55112e-17
616 1 67.3456 183.24 -5.55112e-17
617 1 218.486 151.66 -5.55112e-17
618 1 27.4359 177.98 -5.55112e-17
619 1 146.264 148.565 -5.55112e-17
620 1 115.682 214.899 -5.55112e-17
621 1 10.5559 10.3189 -5.55112e-17
622 1 150.935 65.9734 -5.55112e-17
623 1 28.0854 207.506 -5.55112e-17
624 1 46.2738 125.205 -5.55112e-17
625 1 157.182 133.351 -5.55112e-17
626 1 101.051 197.079 -5.55112e-17
627 1 218.166 94.1774 -5.55112e-17
628 1 27.4225 73.0043 -5.55112e-17
629 1 177.233 88.9608 -5.55112e-17
630 2 108.85 12.6955 -5.55112e-17
631 1 33.2137 176.851 -5.55112e-17
632 1 13.2348 213.115 -5.55112e-17
633 1 96.7939 173.533 -5.55112e-17
634 1 14.948 92.2361 -5.55112e-17
635 1 45.9546 154.079 -5.55112e-17
636 1 20.4737 61.5425 -5.55112e-17
637 1 86.5325 31.1049 -5.55112e-17
638 1 174.417 127.451 -5.55112e-17
639 2 43.31 17.1193 -5.55112e-17
640 1 156.19 39.6882 -5.55112e-17
641 1 165.534 93.6532 -5.55112e-17
642 1 151.71 34.7111 -5.55112e-17
643 2 119.658 13.1667 -5.55112e-17
644 1 61.6044 122.455 -5.55112e-17
645 1 144.413 25.9439 -5.55112e-17
646 2 212.246 209.85 -5.55112e-17
647 1 38.8112 205.023 -5.55112e-17
648 1 74.331 208.171 -5.55112e-17
649 2 175.959 29.4566 -5.55112e-17
650 1 118.341 15.5959 -5.55112e-17
651 1 209.888 107.459 -5.55112e-17
652 1 21.5125 156.378 -5.55112e-17
653 1 186.232 134.423 -5.55112e-17
654 1 26.9965 66.7925 -5.55112e-17
655 2 166.547 65.65 -5.55112e-17
656 1 105.508 198.067 -5.55112e-17
657 2 97.9475 26.2014 -5.55112e-17
658 1 72.0822 109.402 -5.55112e-17
659 2 161.558 99.1583 -5.55112e-17
660 1 136.977 191.877 -5.55112e-17
661 1 168.81 207.7 -5.55112e-17
662 1 203.012 103.436 -5.55112e-17
663 1 60.2241 53.2061 -5.55112e-17
664 1 33.0329 55.2985 -5.55112e-17
665 1 53.433 100.667 -5.55112e-17
666 2 141.011 86.1949 -5.55112e-17
667 1 182.676 40.2646 -5.55112e-17
668 2 142.423 145.72 -5.55112e-17
669 1 4.26214 7.42885 -5.55112e-17
670 1 23.2692 104.938 -5.55112e-17
671 2 68.3938 131.423 -5.55112e-17
672 1 192.84 218.688 -5.55112e-17
673 1 95.4785 127.46 -5.55112e-17
674 1 184.428 69.5019 -5.55112e-17
675 1 23.3421 145.095 -5.55112e-17
676 1 177.467 196.409 -5.55112e-17
677 1 180.024 18.4758 -5.55112e-17
678 1 181.382 25.2314 -5.55112e-17
679 2 184.81 157.55 -5.55112e-17
680 1 48.2415 80.3171 -5.55112e-17
681 2 15.7093 168.4 -5.55112e-17
682 1 93.2462 49.7248 -5.55112e-17
683 1 20.5505 13.1978 -5.55112e-17
684 1 152.201 168.032 -5.55112e-17
685 1 195.838 92.9075 -5.55112e-17
686 1 166.108 129.331 -5.55112e-17
687 1 217.582 87.4484 -5.55112e-17
688 1 104.475 147.82 -5.55112e-17
689 2 103.955 3.33562 -5.55112e-17
690 1 117.828 101.442 -5.55112e-17
691 1 69.8113 215.359 -5.55112e-17
692 1 205.89 176.862 -5.55112e-17
693 1 39.3907 150.444 -5.55112e-17
694 1 138.062 184.824 -5.55112e-17
695 1 148.349 170.341 -5.55112e-17
696 1 9.01419 143.189 -5.55112e-17
697 1 24.1931 84.3366 -5.55112e-17
698 1 157.616 137.659 -5.55112e-17
699 1 90.2149 38.2605 -5.55112e-17
700 1 186.52 93.1949 -5.55112e-17
701 1 173.128 86.7614 -5.55112e-17
702 1 51.8144 62.0448 -5.55112e-17
703 2 136.456 60.6644 -5.55112e-17
704 1 101.353 194.718 -5.55112e-17
705 2 8.71135 186.312 -5.55112e-17
706 1 10.3057 135.295 -5.55112e-17
707 1 105.893 110.785 -5.55112e-17
708 1 79.2761 159.719 -5.55112e-17
709 1 121.156 81.854 -5.55112e-17
710 1 28.874 68.607 -5.55112e-17
711 1 156.852 191.459 -5.55112e-17
712 1 192.208 39.2683 -5.55112e-17
713 1 143.976 128.159 -5.55112e-17
714 1 162.165 177.16 -5.55112e-17
715 1 132.163 45.975 -5.55112e-17
716 1 172.105 160.083 -5.55112e-17
717 1 130.181 96.532 -5.55112e-17
718 1 173.316 193.962 -5.55112e-17
719 2 210.561 25.5585 -5.55112e-17
720 1 218.749 109.96 -5.55112e-17
721 1 18.6809 175.052 -5.55112e-17
722 1 21.5347 30.5724 -5.55112e-17
723 2 139.711 61.9517 -5.55112e-17
724 1 42.8665 81.7182 -5.55112e-17
725 1 194.125 77.7753 -5.55112e-17
726 1 17.7354 133.069 -5.55112e-17
727 1 25.6057 106.437 -5.55112e-17
728 2 96.1862 201.159 -5.55112e-17
729 1 167.888 11.1005 -5.55112e-17
730 1 50.7977 111.291 -5.55112e-17
731 1 171.184 50.3973 -5.55112e-17
732 1 88.7685 24.4847 -5.55112e-17
733 1 171.151 115.551 -5.55112e-17
734 1 128.158 17.4597 -5.55112e-17
735 1 94.9069 56.7435 -5.55112e-17
736 2 87.2789 150.807 -5.55112e-17
737 1 99.6486 103.205 -5.55112e-17
738 1 180.808 123.822 -5.55112e-17
739 1 91.4366 82.0558 -5.55112e-17
740 1 19.6906 214.4 -5.55112e-17
741 2 72.5343 39.0154 -5.55112e-17
742 1 107.286 55.3563 -5.55112e-17
743 1 79.5235 134.067 -5.55112e-17
744 2 22.6373 35.7257 -5.55112e-17
745 1 35.1667 98.009 -5.55112e-17
746 1 196.651 99.5864 -5.55112e-17
747 2 80.2844 164.686 -5.55112e-17
748 1 4.23511 76.38 -5.55112e-17
749 1 182.017 4.23777 -5.55112e-17
750 1 150.985 79.4714 -5.55112e-17
751 1 89.5351 69.4707 -5.55112e-17
752 1 49.7738 3.74078 -5.55112e-17
753 1 179.494 149.569 -5.55112e-17
754 1 174.742 18.5591 -5.55112e-17
755 1 142.144 193.649 -5.55112e-17
756 2 40.6988 159.406 -5.55112e-17
757 1 111.977 172.168 -5.55112e-17
758 1 189.368 194.347 -5.55112e-17
759 1 45.9216 156.927 -5.55112e-17
760 1 213.143 117.457 -5.55112e-17
761 1 75.2168 37.7796 -5.55112e-17
762 1 172.281 23.8868 -5.55112e-17
763 1 175.995 99.0964 -5.55112e-17
764 2 1.68135 147.971 -5.55112e-17
765 1 126.788 125.747 -5.55112e-17
766 1 166.45 106.206 -5.55112e-17
767 1 118.121 107.019 -5.55112e-17
768 1 91.1831 144.47 -5.55112e-17
769 1 1.70357 169.881 -5.55112e-17
770 2 157.212 91.5766 -5.55112e-17
771 1 62.4056 103.639 -5.55112e-17
772 1 204.143 167.925 -5.55112e-17
773 1 107.201 213.897 -5.55112e-17
774 1 162.343 33.6101 -5.55112e-17
775 1 159.227 207.93 -5.55112e-17
776 1 123.011 205.238 -5.55112e-17
777 1 198.778 109.793 -5.55112e-17
778 1 198.337 13.285 -5.55112e-17
779 1 175.766 86.8077 -5.55112e-17
780 1 70.2003 14.8418 -5.55112e-17
781 1 109.461 167.126 -5.55112e-17
782 1 139.742 176.108 -5.55112e-17
783 1 104.589 11.8966 -5.55112e-17
784 2 14.3188 61.1925 -5.55112e-17
785 1 84.9732 63.3967 -5.55112e-17
786 1 85.9589 74.1253 -5.55112e-17
787 1 88.5528 86.3691 -5.55112e-17
788 1 32.3611 183.402 -5.55112e-17
789 2 217.961 158.423 -5.55112e-17
790 1 192.846 209.474 -5.55112e-17
791 2 50.2227 25.5894 -5.55112e-17
792 2 60.0014 15.0045 -5.55112e-17
793 2 182.546 6.90972 -5.55112e-17
794 1 169.539 74.0468 -5.55112e-17
795 1 104.574 173.75 -5.55112e-17
796 1 181.084 191.256 -5.55112e-17
797 1 9.39099 145.711 -5.55112e-17
798 2 180.232 35.6882 -5.55112e-17
799 2 132.975 141.467 -5.55112e-17
800 2 26.632 101.142 -5.55112e-17
801 1 117.641 37.6073 -5.55112e-17
802 1 129.096 195.452 -5.55112e-17
803 1 5.59047 172.053 -5.55112e-17
804 2 69.502 28.8535 -5.55112e-17
805 1 182.753 18.9131 -5.55112e-17
806 1 8.00716 92.3719 -5.55112e-17
807 2 26.1565 39.5771 -5.55112e-17
808 1 130.158 140.711 -5.55112e-17
809 2 171.159 71.6645 -5.55112e-17
810 1 216.785 77.5314 -5.55112e-17
811 1 21.5131 4.2749 -5.55112e-17
812 1 74.2006 66.5153 -5.55112e-17
813 2 165.627 61.0514 -5.55112e-17
814 1 94.5699 137.193 -5.55112e-17
815 1 162.054 174.759 -5.55112e-17
816 1 33.652 156.749 -5.55112e-17
817 1 186.461 104.594 -5.55112e-17
818 1 80.8589 179.698 -5.55112e-17
819 1 125.015 70.427 -5.55112e-17
820 1 3.91136 33.334 -5.55112e-17
821 1 129.179 175.26 -5.55112e-17
822 2 74.6929 180.548 -5.55112e-17
823 2 48.2581 159.031 -5.55112e-17
824 1 10.9309 35.394 -5.55112e-17
825 1 203.804 110.302 -5.55112e-17
826 1 200.999 63.7948 -5.55112e-17
827 1 166.98 87.0769 -5.55112e-17
828 1 217.265 72.8682 -5.55112e-17
829 1 166.456 214.253 -5.55112e-17
830 1 43.6828 133.194 -5.55112e-17
831 1 167.567 178.584 -5.55112e-17
832 1 171.204 157.803 -5.55112e-17
833 1 66.0231 53.9004 -5.55112e-17
834 1 35.0926 22.1199 -5.55112e-17
835 1 96.0571 103.272 -5.55112e-17
836 1 15.5923 176.774 -5.55112e-17
837 1 41.8938 189.632 -5.55112e-17
838 1 147.89 188.267 -5.55112e-17
839 2 35.8179 31.9876 -5.55112e-17
840 1 19.7415 35.1907 -5.55112e-17
841 2 165.809 135.733 -5.55112e-17
842 1 12.4499 18.4899 -5.55112e-17
843 2 91.2756 12.5937 -5.55112e-17
844 1 73.5219 71.4013 -5.55112e-17
845 1 208.5 172.644 -5.55112e-17
846 1 22.06 193.163 -5.55112e-17
847 1 76.2545 83.2297 -5.55112e-17
848 1 67.6532 111.94 -5.55112e-17
849 1 131.987 86.8757 -5.55112e-17
850 1 106.808 29.8253 -5.55112e-17
851 1 14.5576 135.895 -5.55112e-17
852 1 21.5919 109.54 -5.55112e-17
853 1 210.903 118.321 -5.55112e-17
854 1 194.964 20.7608 -5.55112e-17
855 1 103.805 85.0107 -5.55112e-17
856 1 100.04 23.5995 -5.55112e-17