ITEM: TIMESTEP
0
ITEM: NUMBER OF ATOMS
7200
ITEM: BOX BOUNDS xy xz yz pp pp pp
0.0000000000000000e+00 2.1900000000000000e+02 0.0000000000000000e+00
0.0000000000000000e+00 2.1900000000000000e+02 0.0000000000000000e+00
-3.6499999999999999e-01 3.6499999999999999e-01 0.0000000000000000e+00
ITEM: ATOMS id type x y z
1 1 55.1838 173.266 -5.55112e-17
2 1 145.803 128.15 -5.55112e-17
3 1 199.688 78.9759 -5.55112e-17
4 1 210.36 165.666 -5.55112e-17
5 1 104.947 24.1856 -5.55112e-17
6 1 10.398 100.075 -5.55112e-17
7 1 82.411 82.4286 -5.55112e-17
8 2 108.457 38.0524 -5.55112e-17
9 1 150.479 201.38 -5.55112e-17
10 2 132.243 127.625 -5.55112e-17
11 1 179.154 101.021 -5.55112e-17
12 1 217.524 197.713 -5.55112e-17
13 2 188.443 30.9689 -5.55112e-17
14 1 193.007 116.305 -5.55112e-17
15 1 52.4242 94.9685 -5.55112e-17
16 2 63.1535 22.892 -5.55112e-17
17 1 79.7896 95.692 -5.55112e-17
18 2 164.935 68.7219 -5.55112e-17
19 1 215.539 56.3254 -5.55112e-17
20 1 113.848 192.949 -5.55112e-17
21 1 9.678 60.2966 -5.55112e-17
22 2 85.9732 157.903 -5.55112e-17
23 2 60.1918 60.4004 -5.55112e-17
24 1 99.0426 201.752 -5.55112e-17
25 1 180.97 82.8694 -5.55112e-17
26 2 203.815 33.7703 -5.55112e-17
27 1 49.0091 146.763 -5.55112e-17
28 2 206.629 98.1282 -5.55112e-17
29 1 61.3056 65.0197 -5.55112e-17
30 1 156.514 35.8269 -5.55112e-17
31 1 128.322 46.7566 -5.55112e-17
32 1 106.674 84.6209 -5.55112e-17
33 1 213.942 47.0761 -5.55112e-17
34 1 95.411 68.5058 -5.55112e-17
35 1 146.826 23.012 -5.55112e-17
36 1 148.982 133.198 -5.55112e-17
37 2 207.664 87.8537 -5.55112e-17
38 1 41.8083 98.4857 -5.55112e-17
39 1 143.438 69.7849 -5.55112e-17
40 1 137.98 153.002 -5.55112e-17
41 1 85.4872 127.602 -5.55112e-17
42 1 113.441 51.9344 -5.55112e-17
43 1 185.645 198.244 -5.55112e-17
44 1 83.2047 21.1711 -5.55112e-17
45 1 94.0754 134.044 -5.55112e-17
46 1 24.6994 91.875 -5.55112e-17
47 1 37.036 79.5998 -5.55112e-17
48 2 182.776 90.2134 -5.55112e-17
49 1 111.429 5.13472 -5.55112e-17
50 1 174.307 86.8946 -5.55112e-17
51 1 93.0342 55.3185 -5.55112e-17
52 1 75.2218 44.0306 -5.55112e-17
53 1 132.852 202.153 -5.55112e-17
54 1 117.633 95.4033 -5.55112e-17
55 1 90.4461 107.018 -5.55112e-17
56 1 90.8504 159.506 -5.55112e-17
57 2 10.8005 131.301 -5.55112e-17
58 1 180.914 111.777 -5.55112e-17
59 1 90.4497 36.1948 -5.55112e-17
60 2 56.5826 97.7798 -5.55112e-17
61 2 152.288 145.126 -5.55112e-17
62 1 36.3391 184.133 -5.55112e-17
63 1 37.3574 181.955 -5.55112e-17
64 1 182.431 4.7472 -5.55112e-17
65 1 185.162 48.1579 -5.55112e-17
66 1 71.1175 167.391 -5.55112e-17
67 1 190.19 142.547 -5.55112e-17
68 1 135.507 37.4049 -5.55112e-17
69 1 15.3821 101.068 -5.55112e-17
70 1 7.12345 164.894 -5.55112e-17
71 1 91.1971 38.5412 -5.55112e-17
72 1 130.4 89.6638 -5.55112e-17
73 1 85.9761 88.8413 -5.55112e-17
74 1 206.07 116.398 -5.55112e-17
75 2 191.604 215.867 -5.55112e-17
76 1 50.2663 55.2543 -5.55112e-17
77 1 11.4119 35.6617 -5.55112e-17
78 1 208.175 100.499 -5.55112e-17
79 2 27.2748 80.63 -5.55112e-17
80 1 144.57 53.2944 -5.55112e-17
81 1 52.692 202.894 -5.55112e-17
82 1 215.266 196.576 -5.55112e-17
83 2 62.4512 171.755 -5.55112e-17
84 1 83.0564 3.96869 -5.55112e-17
85 1 211.645 11.0588 -5.55112e-17
86 1 192.924 93.6012 -5.55112e-17
87 1 181.715 201.484 -5.55112e-17
88 1 109.133 190.075 -5.55112e-17
89 2 161.494 3.15093 -5.55112e-17
90 2 182.115 146.826 -5.55112e-17
91 1 186.345 209.662 -5.55112e-17
92 2 153.405 180.967 -5.55112e-17
93 1 211.586 30.2074 -5.55112e-17
94 2 104.355 201.64 -5.55112e-17
95 1 115.417 200.589 -5.55112e-17
96 1 115.867 26.6446 -5.55112e-17
97 1 75.3518 55.417 -5.55112e-17
98 1 40.4177 57.825 -5.55112e-17
99 1 46.8776 32.8752 -5.55112e-17
100 1 145.039 168.941 -5.55112e-17
101 1 21.562 133.315 -5.55112e-17
102 1 162.81 202.243 -5.55112e-17
103 1 66.6228 146.049 -5.55112e-17
104 1 163.391 66.3278 -5.55112e-17
105 1 131.74 181.639 -5.55112e-17
106 1 140.955 74.4568 -5.55112e-17
107 2 196.046 68.8043 -5.55112e-17
108 1 116.464 147.331 -5.55112e-17
109 1 168.526 52.1455 -5.55112e-17
110 1 133.028 103.599 -5.55112e-17
111 1 44.5512 86.1014 -5.55112e-17
112 1 180.843 173.679 -5.55112e-17
113 1 209.202 6.81161 -5.55112e-17
114 1 67.049 84.293 -5.55112e-17
115 1 149.105 203.896 -5.55112e-17
116 2 215.586 7.21901 -5.55112e-17
117 1 78.4834 196.285 -5.55112e-17
118 1 197.433 77.3745 -5.55112e-17
119 2 202.444 153.115 -5.55112e-17
120 1 70.777 142.622 -5.55112e-17
121 1 82.0374 91.4598 -5.55112e-17
122 1 137.026 25.2691 -5.55112e-17
123 1 111.652 39.3965 -5.55112e-17
124 1 112.496 69.7762 -5.55112e-17
125 1 72.4024 31.5009 -5.55112e-17
126 1 37.591 164.282 -5.55112e-17
127 1 111.275 118.714 -5.55112e-17
128 1 18.185 7.84308 -5.55112e-17
129 1 9.31188 212.811 -5.55112e-17
130 1 0.667729 160.089 -5.55112e-17
131 1 7.77898 178.892 -5.55112e-17
132 2 213.152 185.105 -5.55112e-17
133 1 98.1264 123.859 -5.55112e-17
134 1 96.921 88.5209 -5.55112e-17
135 1 99.2087 74.1004 -5.55112e-17
136 1 192.289 72.3738 -5.55112e-17
137 1 25.885 83.2292 -5.55112e-17
138 1 194.201 113.966 -5.55112e-17
139 1 187.544 129.603 -5.55112e-17
140 2 209.635 172.632 -5.55112e-17
141 1 123.556 82.7862 -5.55112e-17
142 2 12.2925 107.982 -5.55112e-17
143 1 141.196 121.299 -5.55112e-17
144 2 22.8625 63.2879 -5.55112e-17
145 1 52.4869 14.8912 -5.55112e-17
146 1 37.2335 41.8777 -5.55112e-17
147 1 117.681 74.8236 -5.55112e-17
148 1 28.8019 49.602 -5.55112e-17
149 1 160.968 71.1385 -5.55112e-17
150 1 28.6152 96.2874 -5.55112e-17
151 1 81.6312 63.7272 -5.55112e-17
152 1 111.332 155.975 -5.55112e-17
153 2 213.961 64.9314 -5.55112e-17
154 1 215.002 202.138 -5.55112e-17
155 1 94.5394 171.696 -5.55112e-17
156 2 213.735 157.045 -5.55112e-17
157 1 101.106 143.817 -5.55112e-17
158 1 145.998 40.4403 -5.55112e-17
159 1 23.344 29.8396 -5.55112e-17
160 1 84.6867 130.011 -5.55112e-17
161 1 204.275 107.469 -5.55112e-17
162 1 128.088 199.382 -5.55112e-17
163 1 158.47 9.87074 -5.55112e-17
164 1 55.7143 115.029 -5.55112e-17
165 1 72.803 173.054 -5.55112e-17
166 2 19.97 158.305 -5.55112e-17
167 1 9.68753 106.226 -5.55112e-17
168 1 39.7117 42.0175 -5.55112e-17
169 1 32.0083 11.5656 -5.55112e-17
170 1 38.1507 149.795 -5.55112e-17
171 1 76.7828 60.4305 -5.55112e-17
172 1 119.056 110.613 -5.55112e-17
173 1 202.12 82.5642 -5.55112e-17
174 1 127.297 172.308 -5.55112e-17
175 2 34.7344 212.178 -5.55112e-17
176 1 206.406 32.1816 -5.55112e-17
177 2 32.4101 123.729 -5.55112e-17
178 1 217.932 55.3571 -5.55112e-17
179 1 111.722 217.664 -5.55112e-17
180 1 217.739 57.8076 -5.55112e-17
181 1 61.5243 178.597 -5.55112e-17
182 2 101.064 178.636 -5.55112e-17
183 1 45.231 199.889 -5.55112e-17
184 1 44.0801 162.191 -5.55112e-17
185 2 77.5727 172.157 -5.55112e-17
186 2 189.468 122.243 -5.55112e-17
187 1 218.85 33.5286 -5.55112e-17
188 1 169.078 192.429 -5.55112e-17
189 1 67.5738 54.7045 -5.55112e-17
190 2 44.2516 96.757 -5.55112e-17
191 1 62.5021 27.6875 -5.55112e-17
192 2 143.019 50.5844 -5.55112e-17
193 2 121.37 126.759 -5.55112e-17
194 1 201.868 24.4151 -5.55112e-17
195 1 130.038 176.715 -5.55112e-17
196 1 48.6593 12.0677 -5.55112e-17
197 1 197.973 120.4 -5.55112e-17
198 2 215.109 123.42 -5.55112e-17
199 1 86.1292 30.0836 -5.55112e-17
200 1 10.6131 203.181 -5.55112e-17
201 2 15.4955 1.49165 -5.55112e-17
202 1 205.568 148.733 -5.55112e-17
203 1 172.033 212.8 -5.55112e-17
204 1 66.1672 160.452 -5.55112e-17
205 2 54.1991 17.4138 -5.55112e-17
206 1 148.235 108.941 -5.55112e-17
207 1 166.816 182.578 -5.55112e-17
208 1 30.3867 153.798 -5.55112e-17
209 1 182.031 93.1622 -5.55112e-17
210 1 156.569 158.867 -5.55112e-17
211 2 7.07819 107.544 -5.55112e-17
212 1 22.1711 187.954 -5.55112e-17
213 1 20.9855 215.539 -5.55112e-17
214 1 28.8617 165.568 -5.55112e-17
215 1 172.931 73.7193 -5.55112e-17
216 1 183.809 70.0133 -5.55112e-17
217 1 90.7873 56.2658 -5.55112e-17
218 2 148.485 25.0571 -5.55112e-17
219 1 218.705 75.9629 -5.55112e-17
220 2 84.9614 114.746 -5.55112e-17
221 1 23.9056 138.965 -5.55112e-17
222 1 119.435 217.343 -5.55112e-17
223 1 180.174 139.454 -5.55112e-17
224 2 195.304 83.0443 -5.55112e-17
225 1 124.209 37.5722 -5.55112e-17
226 1 117.651 77.4694 -5.55112e-17
227 2 192.97 47.9107 -5.55112e-17
228 1 7.8911 45.5367 -5.55112e-17
229 1 11.0884 125.737 -5.55112e-17
230 1 41.069 103.278 -5.55112e-17
231 1 32.4501 159.894 -5.55112e-17
232 1 17.0339 200.194 -5.55112e-17
233 1 144.347 93.6547 -5.55112e-17
234 1 112.019 132.879 -5.55112e-17
235 1 129.777 11.0484 -5.55112e-17
236 1 87.3326 83.9661 -5.55112e-17
237 1 189.569 96.3254 -5.55112e-17
238 1 111.113 87.3457 -5.55112e-17
239 2 5.36252 47.3329 -5.55112e-17
240 1 65.5591 209.637 -5.55112e-17
241 2 117.683 205.492 -5.55112e-17
242 2 95.0311 83.5215 -5.55112e-17
243 2 48.853 125.194 -5.55112e-17
244 1 203.971 23.1182 -5.55112e-17
245 1 6.39341 2.3376 -5.55112e-17
246 1 153.046 62.7613 -5.55112e-17
247 1 59.932 116.608 -5.55112e-17
248 1 53.6869 92.9804 -5.55112e-17
249 1 168.538 205.198 -5.55112e-17
250 2 20.3723 107.36 -5.55112e-17
251 1 111.438 166.156 -5.55112e-17
252 1 106.979 64.276 -5.55112e-17
253 1 98.5148 155.002 -5.55112e-17
254 2 110.194 130.614 -5.55112e-17
255 1 162.642 87.2362 -5.55112e-17
256 1 205.429 100.727 -5.55112e-17
257 1 170.023 129.024 -5.55112e-17
258 2 89.3498 101.551 -5.55112e-17
259 1 110.686 52.8521 -5.55112e-17
260 1 82.0967 142.389 -5.55112e-17
261 1 28.4335 145.804 -5.55112e-17
262 1 162.129 35.2834 -5.55112e-17
263 1 178.319 61.8165 -5.55112e-17
264 1 95.035 116.731 -5.55112e-17
265 1 118.269 208.521 -5.55112e-17
266 1 147.068 47.1392 -5.55112e-17
267 1 191.381 13.9242 -5.55112e-17
268 1 43.1691 203.62 -5.55112e-17
269 1 151.299 127.079 -5.55112e-17
270 1 157.923 105.112 -5.55112e-17
271 1 55.6449 34.267 -5.55112e-17
272 1 26.6988 10.3431 -5.55112e-17
273 1 10.7196 123.043 -5.55112e-17
274 2 145.345 118.22 -5.55112e-17
275 1 86.2035 54.0105 -5.55112e-17
276 2 178.849 216.697 -5.55112e-17
277 2 210.885 52.3658 -5.55112e-17
278 1 147.88 116.951 -5.55112e-17
279 2 81.3484 217.387 -5.55112e-17
280 1 137.414 22.6867 -5.55112e-17
281 1 213.317 73.0183 -5.55112e-17
282 1 5.00721 99.7325 -5.55112e-17
283 1 128.235 109.321 -5.55112e-17
284 1 17.1432 53.5237 -5.55112e-17
285 1 10.8883 161.884 -5.55112e-17
286 2 34.3187 115.08 -5.55112e-17
287 1 85.7313 151.627 -5.55112e-17
288 1 196.709 138.398 -5.55112e-17
289 1 3.83525 14.2542 -5.55112e-17
290 1 67.1893 75.0386 -5.55112e-17
291 1 192.97 162.064 -5.55112e-17
292 2 170.746 23.0086 -5.55112e-17
293 2 60.2883 84.3839 -5.55112e-17
294 1 168.207 35.2287 -5.55112e-17
295 1 45.3668 61.2182 -5.55112e-17
296 1 22.5725 78.879 -5.55112e-17
297 1 216.229 105.469 -5.55112e-17
298 1 18.3154 16.0379 -5.55112e-17
299 1 2.66239 9.66067 -5.55112e-17
300 2 153.219 129.135 -5.55112e-17
301 1 5.83236 102.143 -5.55112e-17
302 1 193.814 12.9285 -5.55112e-17
303 2 126.184 25.1178 -5.55112e-17
304 2 92.3173 45.0533 -5.55112e-17
305 1 53.5542 64.0807 -5.55112e-17
306 1 18.0138 102.102 -5.55112e-17
307 1 45.3303 190.033 -5.55112e-17
308 1 47.0136 69.9291 -5.55112e-17
309 2 186.894 25.3344 -5.55112e-17
310 1 190.841 70.3906 -5.55112e-17
311 1 2.14981 118.727 -5.55112e-17
312 1 63.5021 88.1478 -5.55112e-17
313 2 188.413 72.181 -5.55112e-17
314 1 136.778 157.653 -5.55112e-17
315 1 159.27 19.2419 -5.55112e-17
316 1 129.597 78.249 -5.55112e-17
317 1 124.419 11.7603 -5.55112e-17
318 1 65.6608 109.12 -5.55112e-17
319 1 207.139 162.15 -5.55112e-17
320 1 11.3494 151.486 -5.55112e-17
321 1 21.6462 115.689 -5.55112e-17
322 1 216.327 30.0262 -5.55112e-17
323 1 117.592 0.297275 -5.55112e-17
324 1 38.8963 147.228 -5.55112e-17
325 1 22.73 57.941 -5.55112e-17
326 1 189.736 176.17 -5.55112e-17
327 2 91.8313 195.051 -5.55112e-17
328 1 11.7462 157.643 -5.55112e-17
329 2 123.103 105.952 -5.55112e-17
330 1 82.8291 190.403 -5.55112e-17
331 1 2.49301 179.682 -5.55112e-17
332 2 200.811 195.704 -5.55112e-17
333 1 162.905 10.7974 -5.55112e-17
334 1 86.0856 71.8071 -5.55112e-17
335 1 72.5552 140.73 -5.55112e-17
336 1 59.4151 162.199 -5.55112e-17
337 1 21.6533 28.0213 -5.55112e-17
338 1 95.0125 6.6218 -5.55112e-17
339 1 180.363 178.634 -5.55112e-17
340 1 29.4056 98.4416 -5.55112e-17
341 1 201.739 60.7623 -5.55112e-17
342 1 176.617 3.64261 -5.55112e-17
343 1 9.1205 19.2988 -5.55112e-17
344 1 150.022 122.099 -5.55112e-17
345 1 16.1543 169.89 -5.55112e-17
346 1 75.6481 189.538 -5.55112e-17
347 1 174.69 33.6533 -5.55112e-17
348 1 0.0868443 25.028 -5.55112e-17
349 1 192.867 60.9326 -5.55112e-17
350 2 133.776 179.606 -5.55112e-17
351 1 127.671 114.792 -5.55112e-17
352 1 100.089 43.7901 -5.55112e-17
353 1 181.243 80.3631 -5.55112e-17
354 1 62.3403 69.7307 -5.55112e-17
355 1 142.744 197.393 -5.55112e-17
356 1 43.835 155.04 -5.55112e-17
357 1 112.704 74.5979 -5.55112e-17
358 1 183.404 197.182 -5.55112e-17
359 1 16.5503 35.0625 -5.55112e-17
360 1 214.154 112.477 -5.55112e-17
361 1 154.694 17.7091 -5.55112e-17
362 1 93.2245 210.573 -5.55112e-17
363 1 215.675 44.7787 -5.55112e-17
364 2 109.716 7.37192 -5.55112e-17
365 1 185.787 212.46 -5.55112e-17
366 1 46.4369 80.8983 -5.55112e-17
367 1 17.1026 70.3384 -5.55112e-17
368 1 137.895 79.3233 -5.55112e-17
369 2 181.322 51.3143 -5.55112e-17
370 1 216.819 176.043 -5.55112e-17
371 1 108.033 74.8784 -5.55112e-17
372 2 91.7816 6.50625 -5.55112e-17
373 2 72.1498 204.708 -5.55112e-17
374 1 143.252 187.944 -5.55112e-17
375 1 34.8485 194.328 -5.55112e-17
376 1 58.772 154.872 -5.55112e-17
377 1 127.669 130.368 -5.55112e-17
378 1 98.3246 92.4892 -5.55112e-17
379 1 103.102 141.417 -5.55112e-17
380 1 16.2586 176.862 -5.55112e-17
381 1 109.312 192.71 -5.55112e-17
382 1 158.581 87.7541 -5.55112e-17
383 1 210.626 149.955 -5.55112e-17
384 1 92.3611 112.183 -5.55112e-17
385 1 207.122 102.701 -5.55112e-17
386 2 95.4276 24.0552 -5.55112e-17
387 1 155.984 0.439544 -5.55112e-17
388 1 126.701 64.4266 -5.55112e-17
389 1 189.322 6.19437 -5.55112e-17
390 2 110.019 185.289 -5.55112e-17
391 2 109.833 102.191 -5.55112e-17
392 1 3.53495 163.752 -5.55112e-17
393 1 167.372 74.291 -5.55112e-17
394 1 27.4202 70.7537 -5.55112e-17
395 1 183.146 151.659 -5.55112e-17
396 1 35.7379 90.6935 -5.55112e-17
397 1 27.2655 196.379 -5.55112e-17
398 1 104.943 107.885 -5.55112e-17
399 1 79.9224 140.196 -5.55112e-17
400 1 154.464 146.695 -5.55112e-17
401 1 84.7477 119.663 -5.55112e-17
402 2 211.198 210.48 -5.55112e-17
403 1 86.8225 185.27 -5.55112e-17
404 1 213.884 89.882 -5.55112e-17
405 1 142.902 154.07 -5.55112e-17
406 1 63.1241 155.613 -5.55112e-17
407 2 104.396 115.339 -5.55112e-17
408 1 116.349 36.4072 -5.55112e-17
409 1 78.3375 48.6131 -5.55112e-17
410 1 75.3229 186.873 -5.55112e-17
411 1 95.0609 112.138 -5.55112e-17
412 1 145.444 25.7253 -5.55112e-17
413 1 120.49 106.935 -5.55112e-17
414 1 107.88 158.242 -5.55112e-17
415 1 199.318 68.702 -5.55112e-17
416 1 64.5179 122.873 -5.55112e-17
417 1 139.577 101.882 -5.55112e-17
418 2 199.155 125.827 -5.55112e-17
419 1 25.507 129.842 -5.55112e-17
420 2 104.585 52.4234 -5.55112e-17
421 1 9.08377 95.6982 -5.55112e-17
422 1 143.764 171.352 -5.55112e-17
423 2 139.639 34.3254 -5.55112e-17
424 1 167.18 33.0535 -5.55112e-17
425 1 168.951 117.57 -5.55112e-17
426 1 170.436 105.567 -5.55112e-17
427 1 141.775 103.266 -5.55112e-17
428 1 37.589 129.08 -5.55112e-17
429 1 105.734 36.7855 -5.55112e-17
430 1 184.992 111.671 -5.55112e-17
431 1 119.143 129.421 -5.55112e-17
432 1 198.77 181.535 -5.55112e-17
433 1 66.7997 70.0198 -5.55112e-17
434 1 214.638 119.668 -5.55112e-17
435 1 218.274 127.802 -5.55112e-17
436 1 144.596 91.2252 -5.55112e-17
437 1 5.37924 193.57 -5.55112e-17
438 2 13.7544 80.714 -5.55112e-17
439 1 201.512 42.0488 -5.55112e-17
440 1 73.3734 4.45374 -5.55112e-17
441 1 96.9211 203.168 -5.55112e-17
442 1 169.395 182.426 -5.55112e-17
443 1 45.2195 176.789 -5.55112e-17
444 1 13.0698 172.788 -5.55112e-17
445 1 127.351 202.231 -5.55112e-17
446 1 54.3486 132.599 -5.55112e-17
447 1 146.181 51.2391 -5.55112e-17
448 1 54.6554 27.2397 -5.55112e-17
449 1 82.5728 25.7231 -5.55112e-17
450 1 144.199 99.0552 -5.55112e-17
451 1 205.832 134.772 -5.55112e-17
452 1 131.634 167.412 -5.55112e-17
453 1 43.1743 66.2916 -5.55112e-17
454 1 91.4398 86.8273 -5.55112e-17
455 1 86.5127 196.19 -5.55112e-17
456 1 151.315 51.3038 -5.55112e-17
457 1 198.48 111.648 -5.55112e-17
458 1 4.33652 34.4758 -5.55112e-17
459 1 185.675 45.1817 -5.55112e-17
460 1 127.684 193.867 -5.55112e-17
461 1 172.565 129.195 -5.55112e-17
462 1 205.082 10.2526 -5.55112e-17
463 1 175.18 38.219 -5.55112e-17
464 1 188.15 211.127 -5.55112e-17
465 1 165.323 175.523 -5.55112e-17
466 1 147.632 122.824 -5.55112e-17
467 1 186.862 131.887 -5.55112e-17
468 1 36.5211 107.634 -5.55112e-17
469 1 46.4789 37.8172 -5.55112e-17
470 1 112.81 209.092 -5.55112e-17
471 1 204.211 195.871 -5.55112e-17
472 1 61.3826 137.173 -5.55112e-17
473 1 97.804 190.253 -5.55112e-17
474 1 36.5803 146.897 -5.55112e-17
475 1 73.3788 194.555 -5.55112e-17
476 2 197.137 40.9087 -5.55112e-17
477 1 76.4842 182.527 -5.55112e-17
478 1 174.32 145.583 -5.55112e-17
479 1 147.826 76.5685 -5.55112e-17
480 1 106.005 13.3655 -5.55112e-17
481 1 138.989 204.601 -5.55112e-17
482 1 53.6635 181.551 -5.55112e-17
483 1 67.3857 50.5739 -5.55112e-17
484 2 2.10852 108.736 -5.55112e-17
485 1 54.4287 153.195 -5.55112e-17
486 1 52.2912 164.689 -5.55112e-17
487 1 169.752 186.798 -5.55112e-17
488 1 95.6822 122.567 -5.55112e-17
489 1 196.26 118.625 -5.55112e-17
490 1 154.114 217.338 -5.55112e-17
491 1 45.5227 4.35956 -5.55112e-17
492 1 200.847 53.7348 -5.55112e-17
493 1 2.24898 206.502 -5.55112e-17
494 1 55.8997 122.898 -5.55112e-17
495 1 131.091 162.516 -5.55112e-17
496 2 151.486 93.095 -5.55112e-17
497 1 169.616 81.0906 -5.55112e-17
498 1 179.061 69.5847 -5.55112e-17
499 2 11.1062 85.569 -5.55112e-17
500 1 75.7507 3.83565 -5.55112e-17
501 2 105.989 204.321 -5.55112e-17
502 2 115.754 159.553 -5.55112e-17
503 1 186.222 157.278 -5.55112e-17
504 1 59.9989 40.253 -5.55112e-17
505 1 6.33725 74.2455 -5.55112e-17
506 1 115.751 4.21684 -5.55112e-17
507 1 35.9578 203.928 -5.55112e-17
508 1 34.078 99.7984 -5.55112e-17
509 2 43.8456 127.878 -5.55112e-17
510 2 14.9497 6.09823 -5.55112e-17
511 1 216.752 144.284 -5.55112e-17
512 2 21.423 11.8148 -5.55112e-17
513 1 78.9911 46.2938 -5.55112e-17
514 1 47.5249 185.309 -5.55112e-17
515 1 187.905 78.1536 -5.55112e-17
516 1 20.7059 50.9652 -5.55112e-17
517 1 160.263 146.466 -5.55112e-17
518 2 93.7668 52.3267 -5.55112e-17
519 1 186.024 1.88467 -5.55112e-17
520 2 18.0315 129.872 -5.55112e-17
521 1 47.5704 42.819 -5.55112e-17
522 1 172.294 26.1394 -5.55112e-17
523 1 115.881 174.49 -5.55112e-17
524 1 215.483 110.824 -5.55112e-17
525 1 46.4981 128.838 -5.55112e-17
526 1 84.9194 189.645 -5.55112e-17
527 1 42.645 189.357 -5.55112e-17
528 1 80.6198 189.007 -5.55112e-17
529 1 101.438 101.622 -5.55112e-17
530 1 187.454 138.628 -5.55112e-17
531 1 42.2365 196.072 -5.55112e-17
532 1 111.301 161.374 -5.55112e-17
533 1 39.9347 151.649 -5.55112e-17
534 1 123.063 25.9317 -5.55112e-17
535 1 83.7244 30.9941 -5.55112e-17
536 1 96.0714 162.744 -5.55112e-17
537 1 60.9685 20.3721 -5.55112e-17
538 1 68.4536 24.9422 -5.55112e-17
539 1 14.4898 157.787 -5.55112e-17
540 1 89.1742 173.179 -5.55112e-17
541 1 160.814 130.18 -5.55112e-17
542 1 190.15 129.592 -5.55112e-17
543 1 72.4456 89.9904 -5.55112e-17
544 1 46.7954 123.363 -5.55112e-17
545 1 4.90479 31.9644 -5.55112e-17
546 1 40.5685 167.799 -5.55112e-17
547 1 153.29 83.4513 -5.55112e-17
548 1 105.581 66.4107 -5.55112e-17
549 1 103.103 189.334 -5.55112e-17
550 2 51.0393 46.2125 -5.55112e-17
551 2 96.0197 147.082 -5.55112e-17
552 2 195.324 101.303 -5.55112e-17
553 1 200.744 71.443 -5.55112e-17
554 1 181.079 137.115 -5.55112e-17
555 2 216.979 162.309 -5.55112e-17
556 1 73.7296 58.3879 -5.55112e-17
557 1 50.4346 177.839 -5.55112e-17
558 1 113.845 198.705 -5.55112e-17
559 1 65.0566 157.794 -5.55112e-17
560 1 198.776 20.8662 -5.55112e-17
561 1 185.54 54.6313 -5.55112e-17
562 1 162.348 63.755 -5.55112e-17
563 2 206.856 21.6304 -5.55112e-17
564 1 80.1333 18.0031 -5.55112e-17
565 1 87.8826 67.5102 -5.55112e-17
566 1 3.08125 143.203 -5.55112e-17
567 1 39.5896 99.8135 -5.55112e-17
568 1 205.206 203.252 -5.55112e-17
569 1 37.4388 115.215 -5.55112e-17
570 1 44.7643 107.613 -5.55112e-17
571 1 207.31 185.957 -5.55112e-17
572 1 120.568 171.882 -5.55112e-17
573 1 57.2006 107.573 -5.55112e-17
574 1 198.013 156.953 -5.55112e-17
575 1 52.1826 214.719 -5.55112e-17
576 1 85.6418 26.0943 -5.55112e-17
577 1 29.1137 91.6589 -5.55112e-17
578 1 141.036 171.736 -5.55112e-17
579 1 9.46117 33.3125 -5.55112e-17
580 1 156.021 127.785 -5.55112e-17
581 1 165.644 209.491 -5.55112e-17
582 1 188.26 27.9692 -5.55112e-17
583 1 126.925 165.056 -5.55112e-17
584 2 66.488 205.067 -5.55112e-17
585 1 133.085 36.5233 -5.55112e-17
586 1 215.107 189.631 -5.55112e-17
587 1 209.01 123.606 -5.55112e-17
588 1 169.739 114.716 -5.55112e-17
589 1 44.341 137.946 -5.55112e-17
590 1 29.9233 52.7676 -5.55112e-17
591 1 131.726 165.121 -5.55112e-17
592 1 77.6455 119.434 -5.55112e-17
593 1 41.041 202.827 -5.55112e-17
594 1 3.46822 91.286 -5.55112e-17
595 1 180.419 39.4371 -5.55112e-17
596 1 105.545 214.051 -5.55112e-17
597 2 89.2027 33.8208 -5.55112e-17
598 1 101.098 134.321 -5.55112e-17
599 1 204.272 31.1013 -5.55112e-17
600 1 92.4245 139.688 -5.55112e-17
601 1 83.3492 181.653 -5.55112e-17
602 1 44.975 14.4636 -5.55112e-17
603 1 153.475 158.822 -5.55112e-17
604 1 110.216 158.211 -5.55112e-17
605 2 159.215 35.9175 -5.55112e-17
606 1 177.322 193.785 -5.55112e-17
607 2 70.1537 38.7414 -5.55112e-17
608 1 77.5125 50.775 -5.55112e-17
609 1 1.29779 199.15 -5.55112e-17
610 1 81.4963 97.3023 -5.55112e-17
611 1 86.0936 182.561 -5.55112e-17
612 1 148.571 135.39 -5.55112e-17
613 1 47.071 83.3276 -5.55112e-17
614 2 112.525 55.0271 -5.55112e-17
615 1 171.195 59.5124 -5.55112e-17
616 1 90.3254 179.524 -5.55112e-17
617 1 55.9687 158.541 -5.55112e-17
618 1 199.508 162.329 -5.55112e-17
619 1 142.437 89.9136 -5.55112e-17
620 1 211.597 94.1818 -5.55112e-17
621 1 8.61243 15.1616 -5.55112e-17
622 1 39.0024 157.231 -5.55112e-17
623 1 211.723 127.976 -5.55112e-17
624 1 217.783 0.454324 -5.55112e-17
625 1 8.31767 129.977 -5.55112e-17
626 1 159.704 177.16 -5.55112e-17
627 1 14.4207 33.472 -5.55112e-17
628 1 216.764 32.3385 -5.55112e-17
629 1 182.061 17.1765 -5.55112e-17
630 2 43.6153 147.939 -5.55112e-17
631 1 46.3443 209.793 -5.55112e-17
632 1 86.5845 205.481 -5.55112e-17
633 1 18.7323 192.542 -5.55112e-17
634 1 18.2994 50.7487 -5.55112e-17
635 1 216.529 24.8774 -5.55112e-17
636 1 84.2981 75.5289 -5.55112e-17
637 1 57.6976 38.8444 -5.55112e-17
638 1 125.372 180.639 -5.55112e-17
639 2 3.92937 54.9563 -5.55112e-17
640 1 209.07 84.5225 -5.55112e-17
641 1 36.8347 30.8633 -5.55112e-17
642 1 193.231 55.2309 -5.55112e-17
643 2 80.8363 88.4227 -5.55112e-17
644 1 157.338 62.7645 -5.55112e-17
645 1 111.319 135.563 -5.55112e-17
646 2 81.2005 77.1446 -5.55112e-17
647 1 177.768 128.629 -5.55112e-17
648 1 184.67 170.049 -5.55112e-17
649 2 213.984 215.896 -5.55112e-17
650 1 132.907 31.0399 -5.55112e-17
651 1 124.788 158.645 -5.55112e-17
652 1 179.408 147.27 -5.55112e-17
653 1 200.083 177.28 -5.55112e-17
654 1 50.5218 168.771 -5.55112e-17
655 2 30.1054 215.932 -5.55112e-17
656 1 19.3379 165.676 -5.55112e-17
657 2 2.29061 67.1981 -5.55112e-17
658 1 43.162 20.2044 -5.55112e-17
659 2 202.55 88.74 -5.55112e-17
660 1 159.737 115.022 -5.55112e-17
661 1 188.335 190.064 -5.55112e-17
662 1 162.667 159.387 -5.55112e-17
663 1 216.417 141.278 -5.55112e-17
664 1 46.8878 133.996 -5.55112e-17
665 1 137.52 218.298 -5.55112e-17
666 2 214.235 174.605 -5.55112e-17
667 1 50.4234 67.2137 -5.55112e-17
668 2 56.0542 23.1079 -5.55112e-17
669 1 17.5448 207.575 -5.55112e-17
670 1 140.375 153.331 -5.55112e-17
671 2 173.396 207.381 -5.55112e-17
672 1 209.857 95.7789 -5.55112e-17
673 1 66.0965 111.824 -5.55112e-17
674 1 94.1073 60.0526 -5.55112e-17
675 1 56.8267 84.0109 -5.55112e-17
676 1 17.5148 126.628 -5.55112e-17
677 1 112.063 41.7622 -5.55112e-17
678 1 214.523 166.555 -5.55112e-17
679 2 45.6677 50.9663 -5.55112e-17
680 1 119.353 63.2999 -5.55112e-17
681 2 191.623 108.949 -5.55112e-17
682 1 4.36608 140.675 -5.55112e-17
683 1 178.854 98.6263 -5.55112e-17
684 1 91.2642 146.265 -5.55112e-17
685 1 118.942 202.753 -5.55112e-17
686 1 162.089 50.6687 -5.55112e-17
687 1 28.842 65.2203 -5.55112e-17
688 1 11.7585 142.914 -5.55112e-17
689 2 41.6129 156.691 -5.55112e-17
690 1 34.0069 46.9598 -5.55112e-17
691 1 107.996 66.6926 -5.55112e-17
692 1 41.3064 126.633 -5.55112e-17
693 1 207.748 125.983 -5.55112e-17
694 1 199.035 128.857 -5.55112e-17
695 1 109.247 116.508 -5.55112e-17
696 1 18.8521 82.0222 -5.55112e-17
697 1 124.432 18.1303 -5.55112e-17
698 1 85.2289 203.05 -5.55112e-17
699 1 214.664 103.752 -5.55112e-17
700 1 26.2985 40.1966 -5.55112e-17
701 1 143.436 156.577 -5.55112e-17
702 1 84.4371 40.7157 -5.55112e-17
703 2 44.9812 78.5394 -5.55112e-17
704 1 73.2559 70.5042 -5.55112e-17
705 2 141.255 214.069 -5.55112e-17
706 1 4.98078 109.372 -5.55112e-17
707 1 171.356 30.776 -5.55112e-17
708 1 123.116 181.43 -5.55112e-17
709 1 119.796 185.165 -5.55112e-17
710 1 86.3589 146.964 -5.55112e-17
711 1 71.9157 100.272 -5.55112e-17
712 1 167.371 80.4504 -5.55112e-17
713 1 214.828 164.168 -5.55112e-17
714 1 16.4119 79.7559 -5.55112e-17
715 1 190.403 153.029 -5.55112e-17
716 1 108.444 104.439 -5.55112e-17
717 1 167.65 150.519 -5.55112e-17
718 1 129.644 138.303 -5.55112e-17
719 2 137.793 207.989 -5.55112e-17
720 1 104.936 152.075 -5.55112e-17
721 1 5.91314 162.793 -5.55112e-17
722 1 66.1481 0.960389 -5.55112e-17
723 2 53.1655 29.6645 -5.55112e-17
724 1 213.469 70.229 -5.55112e-17
725 1 9.71183 180.485 -5.55112e-17
726 1 58.5333 146.588 -5.55112e-17
727 1 118.863 49.1931 -5.55112e-17
728 2 206.198 71.273 -5.55112e-17
729 1 61.4586 217.537 -5.55112e-17
730 1 215.319 115.064 -5.55112e-17
731 1 127.63 13.0528 -5.55112e-17
732 1 96.2003 13.1413 -5.55112e-17
733 1 194.507 6.84186 -5.55112e-17
734 1 131.035 16.2734 -5.55112e-17
735 1 7.92539 81.1367 -5.55112e-17
736 2 204.264 4.89522 -5.55112e-17
737 1 11.7189 43.9927 -5.55112e-17
738 1 77.023 86.6685 -5.55112e-17
739 1 133.301 51.9432 -5.55112e-17
740 1 211.434 71.7247 -5.55112e-17
741 2 153.67 201.669 -5.55112e-17
742 1 49.5079 69.6517 -5.55112e-17
743 1 135.886 212.632 -5.55112e-17
744 2 37.39 10.8354 -5.55112e-17
745 1 21.1153 204.182 -5.55112e-17
746 1 170.359 197.532 -5.55112e-17
747 2 193.472 63.7516 -5.55112e-17
748 1 14.2723 213.838 -5.55112e-17
749 1 197.836 154.709 -5.55112e-17
750 1 35.4717 105.242 -5.55112e-17
751 1 63.6641 185.666 -5.55112e-17
752 1 26.3854 167.556 -5.55112e-17
753 1 7.58226 66.9766 -5.55112e-17
754 1 114.102 217.088 -5.55112e-17
755 1 6.76281 54.0496 -5.55112e-17
756 2 158.534 1.7766 -5.55112e-17
757 1 195.455 88.3062 -5.55112e-17
758 1 1.05149 162.775 -5.55112e-17
759 1 109.851 42.959 -5.55112e-17
760 1 81.3626 107.813 -5.55112e-17
761 1 16.7343 41.8766 -5.55112e-17
762 1 48.9963 155.481 -5.55112e-17
763 1 27.032 36.0853 -5.55112e-17
764 2 31.0591 177.891 -5.55112e-17
765 1 23.9802 73.6465 -5.55112e-17
766 1 108.61 162.648 -5.55112e-17
767 1 8.44767 4.73306 -5.55112e-17
768 1 46.7776 63.2324 -5.55112e-17
769 1 166.858 122.699 -5.55112e-17
770 2 120.067 91.5368 -5.55112e-17
771 1 216.12 126.09 -5.55112e-17
772 1 12.4312 167.23 -5.55112e-17
773 1 113.537 86.3651 -5.55112e-17
774 1 184.129 100.7 -5.55112e-17
775 1 114.344 115.768 -5.55112e-17
776 1 139.734 104.797 -5.55112e-17
777 1 60.8056 47.1576 -5.55112e-17
778 1 1.13064 82.1772 -5.55112e-17
779 1 211.443 174.764 -5.55112e-17
780 1 48.8853 23.7478 -5.55112e-17
781 1 12.1146 104.737 -5.55112e-17
782 1 2.95946 16.5363 -5.55112e-17
783 1 36.4091 82.7143 -5.55112e-17
784 2 2.3826 138.354 -5.55112e-17
785 1 129.713 92.1434 -5.55112e-17
786 1 153.656 31.3703 -5.55112e-17
787 1 176.643 108.379 -5.55112e-17
788 1 134.511 26.1283 -5.55112e-17
789 2 165.008 30.9823 -5.55112e-17
790 1 164.471 134.287 -5.55112e-17
791 2 198.396 211.215 -5.55112e-17
792 2 88.1883 119.303 -5.55112e-17
793 2 28.0137 5.15215 -5.55112e-17
794 1 194.402 131.69 -5.55112e-17
795 1 116.227 47.7186 -5.55112e-17
796 1 137.698 18.3579 -5.55112e-17
797 1 152.985 43.2715 -5.55112e-17
798 2 99.6781 175.752 -5.55112e-17
799 2 22.6025 37.5799 -5.55112e-17
800 2 24.9946 27.1031 -5.55112e-17
801 1 26.1094 192.338 -5.55112e-17
802 1 7.66435 31.6114 -5.55112e-17
803 1 60.2714 57.1021 -5.55112e-17
804 2 150.878 13.0946 -5.55112e-17
805 1 93.6504 47.3351 -5.55112e-17
806 1 217.705 171.164 -5.55112e-17
807 2 15.1098 75.5767 -5.55112e-17
808 1 180.991 46.7528 -5.55112e-17
809 2 69.6177 70.3797 -5.55112e-17
810 1 155.341 15.5042 -5.55112e-17
811 1 155.513 53.3356 -5.55112e-17
812 1 14.7754 216.482 -5.55112e-17
813 2 72.4881 75.0518 -5.55112e-17
814 1 125.349 103.055 -5.55112e-17
815 1 20.6528 9.15574 -5.55112e-17
816 1 23.8095 96.9531 -5.55112e-17
817 1 112.243 72.0458 -5.55112e-17
818 1 135.288 50.4516 -5.55112e-17
819 1 81.2452 183.573 -5.55112e-17
820 1 127.659 117.234 -5.55112e-17
821 1 198.962 142.587 -5.55112e-17
822 2 80.6515 110.82 -5.55112e-17
823 2 134.88 112.585 -5.55112e-17
824 1 98.5884 76.3711 -5.55112e-17
825 1 150.756 205.587 -5.55112e-17
826 1 49.5767 191.88 -5.55112e-17
827 1 208.665 188.133 -5.55112e-17
828 1 6.25297 59.5164 -5.55112e-17
829 1 93.1317 62.8013 -5.55112e-17
830 1 154.485 78.5881 -5.55112e-17
831 1 192.091 121.717 -5.55112e-17
832 1 141.23 149.215 -5.55112e-17
833 1 136.696 135.699 -5.55112e-17
834 1 142.612 206.34 -5.55112e-17
835 1 103.941 72.5881 -5.55112e-17
836 1 149.09 94.3114 -5.55112e-17
837 1 197.548 176.447 -5.55112e-17
838 1 57.6485 192.878 -5.55112e-17
839 2 208.741 168.025 -5.55112e-17
840 1 45.0048 54.1593 -5.55112e-17
841 2 217.833 210.714 -5.55112e-17
842 1 186.236 109.324 -5.55112e-17
843 2 19.3957 47.9186 -5.55112e-17
844 1 151.567 5.39875 -5.55112e-17
845 1 133.892 62.1913 -5.55112e-17
846 1 67.6107 36.859 -5.55112e-17
847 1 122.083 202.838 -5.55112e-17
848 1 160.992 66.4112 -5.55112e-17
849 1 25.112 148.837 -5.55112e-17
850 1 62.986 66.6359 -5.55112e-17
851 1 68.9945 153.667 -5.55112e-17
852 1 81.6086 59.8464 -5.55112e-17
853 1 72.2426 130.716 -5.55112e-17
854 1 185.676 190.317 -5.55112e-17
855 1 157.881 98.085 -5.55112e-17
856 1 204.552 95.9012 -5.55112e-17