ITEM: TIMESTEP
0
ITEM: NUMBER OF ATOMS
7200
ITEM: BOX BOUNDS xy xz yz pp pp pp
0.0000000000000000e+00 2.1900000000000000e+02 0.0000000000000000e+00
0.0000000000000000e+00 2.1900000000000000e+02 0.0000000000000000e+00
-3.6499999999999999e-01 3.6499999999999999e-01 0.0000000000000000e+00
ITEM: ATOMS id type x y z
1 1 88.2285 134.837 -5.55112e-17
2 1 55.8871 195.428 -5.55112e-17
3 1 135.053 204.806 -5.55112e-17
4 1 73.0145 168.744 -5.55112e-17
5 1 214.325 121.049 -5.55112e-17
6 1 70.0942 175.343 -5.55112e-17
7 1 156.105 170.94 -5.55112e-17
8 2 132.698 195.052 -5.55112e-17
9 1 107.515 144.95 -5.55112e-17
10 2 70.7412 149.731 -5.55112e-17
11 1 215.82 70.6061 -5.55112e-17
12 1 28.4527 182.546 -5.55112e-17
13 2 171.812 115.733 -5.55112e-17
14 1 97.1252 18.6928 -5.55112e-17
15 1 102.015 72.9166 -5.55112e-17
16 2 217.564 77.5783 -5.55112e-17
17 1 110.418 196.253 -5.55112e-17
18 2 187.947 64.2596 -5.55112e-17
19 1 210.532 199.112 -5.55112e-17
20 1 79.762 183.405 -5.55112e-17
21 1 132.588 75.1558 -5.55112e-17
22 2 210.217 127.37 -5.55112e-17
23 2 179.649 180.217 -5.55112e-17
24 1 5.78325 167.326 -5.55112e-17
25 1 98.7821 43.9654 -5.55112e-17
26 2 75.1874 197.802 -5.55112e-17
27 1 136.076 145.243 -5.55112e-17
28 2 146.017 15.9395 -5.55112e-17
29 1 101.315 207.301 -5.55112e-17
30 1 100.536 68.8672 -5.55112e-17
31 1 217.26 74.7441 -5.55112e-17
32 1 125.415 132.761 -5.55112e-17
33 1 119.236 137.286 -5.55112e-17
34 1 120.862 91.0334 -5.55112e-17
35 1 134.937 176.552 -5.55112e-17
36 1 131.103 127.195 -5.55112e-17
37 2 119.294 165.264 -5.55112e-17
38 1 178.312 65.2146 -5.55112e-17
39 1 152.687 65.6836 -5.55112e-17
40 1 76.1653 4.74759 -5.55112e-17
41 1 147.763 69.7376 -5.55112e-17
42 1 5.12426 151.248 -5.55112e-17
43 1 154.861 144.306 -5.55112e-17
44 1 68.4996 147.246 -5.55112e-17
45 1 164.466 35.3194 -5.55112e-17
46 1 81.7882 12.3189 -5.55112e-17
47 1 194.932 90.5039 -5.55112e-17
48 2 87.1245 67.7823 -5.55112e-17
49 1 177.604 172.574 -5.55112e-17
50 1 157.378 85.133 -5.55112e-17
51 1 0.942887 122.288 -5.55112e-17
52 1 153.985 34.0479 -5.55112e-17
53 1 74.6386 171.212 -5.55112e-17
54 1 151.468 198.881 -5.55112e-17
55 1 204.242 90.4864 -5.55112e-17
56 1 11.4438 156.832 -5.55112e-17
57 2 218.988 32.6748 -5.55112e-17
58 1 40.8738 129.709 -5.55112e-17
59 1 24.3606 118.102 -5.55112e-17
60 2 16.2117 136.183 -5.55112e-17
61 2 110.042 10.3914 -5.55112e-17
62 1 183.551 144.264 -5.55112e-17
63 1 198.656 137.04 -5.55112e-17
64 1 61.1386 92.9912 -5.55112e-17
65 1 120.482 88.5086 -5.55112e-17
66 1 160.931 168.953 -5.55112e-17
67 1 25.0857 157.669 -5.55112e-17
68 1 2.94961 138.876 -5.55112e-17
69 1 32.9827 37.4411 -5.55112e-17
70 1 191.023 193.515 -5.55112e-17
71 1 15.5958 27.6438 -5.55112e-17
72 1 48.1304 69.8818 -5.55112e-17
73 1 61.0751 6.81044 -5.55112e-17
74 1 18.5463 177.706 -5.55112e-17
75 2 66.9768 17.5687 -5.55112e-17
76 1 206.337 110.262 -5.55112e-17
77 1 184.484 14.7357 -5.55112e-17
78 1 57.6137 96.2528 -5.55112e-17
79 2 88.3046 207.387 -5.55112e-17
80 1 133.475 0.908525 -5.55112e-17
81 1 18.32 194.467 -5.55112e-17
82 1 150.107 203.076 -5.55112e-17
83 2 123.643 162.016 -5.55112e-17
84 1 109.869 193.585 -5.55112e-17
85 1 52.6567 174.86 -5.55112e-17
86 1 71.6779 166.427 -5.55112e-17
87 1 201.91 90.2347 -5.55112e-17
88 1 43.5349 116.396 -5.55112e-17
89 2 65.9687 78.5414 -5.55112e-17
90 2 1.54535 104.843 -5.55112e-17
91 1 45.1695 21.7638 -5.55112e-17
92 2 163.115 90.8913 -5.55112e-17
93 1 171.977 184.821 -5.55112e-17
94 2 210.936 169.339 -5.55112e-17
95 1 34.3593 124.158 -5.55112e-17
96 1 79.6397 52.1066 -5.55112e-17
97 1 97.2939 182.255 -5.55112e-17
98 1 129.322 53.866 -5.55112e-17
99 1 148.499 28.7238 -5.55112e-17
100 1 46.8415 62.7379 -5.55112e-17
101 1 4.11713 2.51504 -5.55112e-17
102 1 211.249 207.351 -5.55112e-17
103 1 200.909 31.8187 -5.55112e-17
104 1 140.067 194.84 -5.55112e-17
105 1 189.89 129.427 -5.55112e-17
106 1 19.7453 175.432 -5.55112e-17
107 2 165.528 6.91209 -5.55112e-17
108 1 91.1051 86.9674 -5.55112e-17
109 1 123.392 66.3908 -5.55112e-17
110 1 76.7581 1.20979 -5.55112e-17
111 1 18.0455 133.595 -5.55112e-17
112 1 125.127 104.688 -5.55112e-17
113 1 82.7427 1.51596 -5.55112e-17
114 1 5.62479 128.599 -5.55112e-17
115 1 63.1793 138.564 -5.55112e-17
116 2 54.882 95.9708 -5.55112e-17
117 1 107.452 138.994 -5.55112e-17
118 1 21.6826 145.788 -5.55112e-17
119 2 193.133 77.6584 -5.55112e-17
120 1 151.032 157.553 -5.55112e-17
121 1 101.726 125.949 -5.55112e-17
122 1 155.323 208.618 -5.55112e-17
123 1 101.402 98.5694 -5.55112e-17
124 1 187.21 4.1096 -5.55112e-17
125 1 69.7054 188.553 -5.55112e-17
126 1 130.669 73.6582 -5.55112e-17
127 1 120.42 119.085 -5.55112e-17
128 1 74.5849 74.4189 -5.55112e-17
129 1 214.389 90.121 -5.55112e-17
130 1 197.55 86.8009 -5.55112e-17
131 1 47.1203 88.3795 -5.55112e-17
132 2 162.392 83.9323 -5.55112e-17
133 1 79.2221 5.4357 -5.55112e-17
134 1 130.171 141.499 -5.55112e-17
135 1 38.4839 114.417 -5.55112e-17
136 1 178.855 105.817 -5.55112e-17
137 1 20.7963 195.708 -5.55112e-17
138 1 200.78 124.436 -5.55112e-17
139 1 71.0308 143.167 -5.55112e-17
140 2 42.2559 172.168 -5.55112e-17
141 1 187.743 58.1535 -5.55112e-17
142 2 21.9433 88.5549 -5.55112e-17
143 1 98.9196 82.8971 -5.55112e-17
144 2 185.448 159.498 -5.55112e-17
145 1 165.359 170.332 -5.55112e-17
146 1 51.5857 21.6514 -5.55112e-17
147 1 146.995 11.2758 -5.55112e-17
148 1 114.62 105.859 -5.55112e-17
149 1 81.7753 62.6297 -5.55112e-17
150 1 51.1908 66.3696 -5.55112e-17
151 1 47.9189 116.002 -5.55112e-17
152 1 190.225 59.4304 -5.55112e-17
153 2 176.414 9.19771 -5.55112e-17
154 1 69.0905 25.8006 -5.55112e-17
155 1 149.287 173.107 -5.55112e-17
156 2 23.4786 171.39 -5.55112e-17
157 1 133.704 95.2934 -5.55112e-17
158 1 211.434 190.616 -5.55112e-17
159 1 143.999 64.4847 -5.55112e-17
160 1 143.867 167.802 -5.55112e-17
161 1 121.772 186.805 -5.55112e-17
162 1 169.22 204.817 -5.55112e-17
163 1 27.4159 92.7509 -5.55112e-17
164 1 19.1475 137.084 -5.55112e-17
165 1 174.464 3.16838 -5.55112e-17
166 2 186.988 183.031 -5.55112e-17
167 1 83.9125 173.953 -5.55112e-17
168 1 24.9521 22.0306 -5.55112e-17
169 1 76.5251 209.164 -5.55112e-17
170 1 21.5215 210.199 -5.55112e-17
171 1 117.424 74.7843 -5.55112e-17
172 1 29.5905 145.01 -5.55112e-17
173 1 194.082 102.268 -5.55112e-17
174 1 98.441 143.389 -5.55112e-17
175 2 62.5191 76.577 -5.55112e-17
176 1 200.205 200.352 -5.55112e-17
177 2 58.9271 134.263 -5.55112e-17
178 1 121.238 153.047 -5.55112e-17
179 1 97.1968 93.0726 -5.55112e-17
180 1 60.2538 173.964 -5.55112e-17
181 1 128.291 175.711 -5.55112e-17
182 2 119.225 140.086 -5.55112e-17
183 1 37.3596 213.13 -5.55112e-17
184 1 56.5788 170.614 -5.55112e-17
185 2 82.3037 27.2513 -5.55112e-17
186 2 105.034 112.875 -5.55112e-17
187 1 218.809 209.789 -5.55112e-17
188 1 146.888 186.431 -5.55112e-17
189 1 59.8305 124.844 -5.55112e-17
190 2 21.7639 190.516 -5.55112e-17
191 1 183.503 0.470201 -5.55112e-17
192 2 58.4299 5.88358 -5.55112e-17
193 2 81.787 77.7166 -5.55112e-17
194 1 0.488303 75.0411 -5.55112e-17
195 1 88.3702 10.1995 -5.55112e-17
196 1 97.6676 78.5628 -5.55112e-17
197 1 110.286 135.231 -5.55112e-17
198 2 132.772 103.44 -5.55112e-17
199 1 193.337 159.369 -5.55112e-17
200 1 1.07484 150.182 -5.55112e-17
201 2 156.074 15.1841 -5.55112e-17
202 1 115.384 156.65 -5.55112e-17
203 1 52.6295 216.607 -5.55112e-17
204 1 155.816 195.496 -5.55112e-17
205 2 5.46101 56.5863 -5.55112e-17
206 1 63.5844 141.185 -5.55112e-17
207 1 114.827 1.45889 -5.55112e-17
208 1 207.511 162.21 -5.55112e-17
209 1 0.325545 166.6 -5.55112e-17
210 1 54.8071 58.2897 -5.55112e-17
211 2 23.2231 131.417 -5.55112e-17
212 1 58.6853 36.4696 -5.55112e-17
213 1 90.2305 167.731 -5.55112e-17
214 1 27.191 55.6389 -5.55112e-17
215 1 210.734 14.6249 -5.55112e-17
216 1 8.72125 97.1181 -5.55112e-17
217 1 105.029 203.565 -5.55112e-17
218 2 42.0003 147.051 -5.55112e-17
219 1 201.215 34.3668 -5.55112e-17
220 2 90.9768 3.04845 -5.55112e-17
221 1 42.8166 26.832 -5.55112e-17
222 1 145.534 132.087 -5.55112e-17
223 1 37.252 52.1085 -5.55112e-17
224 2 49.3541 64.4553 -5.55112e-17
225 1 30.5183 125.037 -5.55112e-17
226 1 185.357 162.216 -5.55112e-17
227 2 161.592 118.754 -5.55112e-17
228 1 25.2631 202.189 -5.55112e-17
229 1 152.084 111.456 -5.55112e-17
230 1 195.054 65.9775 -5.55112e-17
231 1 140.59 123.176 -5.55112e-17
232 1 6.12094 96.8611 -5.55112e-17
233 1 31.6428 188.112 -5.55112e-17
234 1 18.6843 33.8187 -5.55112e-17
235 1 26.7084 170.981 -5.55112e-17
236 1 58.2087 42.4695 -5.55112e-17
237 1 197.074 54.1888 -5.55112e-17
238 1 160.298 104.811 -5.55112e-17
239 2 212.892 87.272 -5.55112e-17
240 1 11.0515 213.545 -5.55112e-17
241 2 43.4286 134.191 -5.55112e-17
242 2 186.228 23.0351 -5.55112e-17
243 2 123.197 63.448 -5.55112e-17
244 1 119.388 14.2209 -5.55112e-17
245 1 94.063 47.4022 -5.55112e-17
246 1 45.005 165.203 -5.55112e-17
247 1 173.216 89.4585 -5.55112e-17
248 1 119.052 92.4988 -5.55112e-17
249 1 128.9 21.873 -5.55112e-17
250 2 34.9837 7.42531 -5.55112e-17
251 1 107.599 40.0538 -5.55112e-17
252 1 22.6756 53.2851 -5.55112e-17
253 1 158.806 90.0856 -5.55112e-17
254 2 3.91084 156.365 -5.55112e-17
255 1 83.675 21.7566 -5.55112e-17
256 1 63.1557 115.529 -5.55112e-17
257 1 2.54854 117.571 -5.55112e-17
258 2 87.1896 163.354 -5.55112e-17
259 1 133.193 77.9178 -5.55112e-17
260 1 21.9648 136.788 -5.55112e-17
261 1 41.6925 121.745 -5.55112e-17
262 1 97.5848 169.557 -5.55112e-17
263 1 134.819 140.003 -5.55112e-17
264 1 200.757 5.90888 -5.55112e-17
265 1 143.09 184.445 -5.55112e-17
266 1 140.619 93.1536 -5.55112e-17
267 1 20.291 163.322 -5.55112e-17
268 1 10.2013 8.02354 -5.55112e-17
269 1 165.616 187.857 -5.55112e-17
270 1 212.509 197.431 -5.55112e-17
271 1 59.9318 11.0551 -5.55112e-17
272 1 150.384 57.4529 -5.55112e-17
273 1 121.348 74.9721 -5.55112e-17
274 2 143.976 160.035 -5.55112e-17
275 1 56.3419 48.2359 -5.55112e-17
276 2 28.1138 83.4218 -5.55112e-17
277 2 76.5922 58.8154 -5.55112e-17
278 1 180.922 21.6352 -5.55112e-17
279 2 25.5213 125.584 -5.55112e-17
280 1 184.71 17.3821 -5.55112e-17
281 1 25.615 161.541 -5.55112e-17
282 1 171.191 3.09361 -5.55112e-17
283 1 172.537 41.5404 -5.55112e-17
284 1 216.98 108.702 -5.55112e-17
285 1 19.4586 121.985 -5.55112e-17
286 2 29.8837 62.4694 -5.55112e-17
287 1 153.809 197.479 -5.55112e-17
288 1 192.523 55.6813 -5.55112e-17
289 1 46.0818 47.7806 -5.55112e-17
290 1 163.234 139.317 -5.55112e-17
291 1 149.888 114.16 -5.55112e-17
292 2 109.935 25.2746 -5.55112e-17
293 2 4.40563 172.491 -5.55112e-17
294 1 135.758 212.09 -5.55112e-17
295 1 4.16783 37.5633 -5.55112e-17
296 1 79.3222 49.6462 -5.55112e-17
297 1 194.09 185.182 -5.55112e-17
298 1 138.053 72.5412 -5.55112e-17
299 1 133.664 20.9481 -5.55112e-17
300 2 188.177 200.352 -5.55112e-17
301 1 130.039 168.971 -5.55112e-17
302 1 12.5426 149.487 -5.55112e-17
303 2 81.9007 180.999 -5.55112e-17
304 2 176.71 93.4089 -5.55112e-17
305 1 100.478 66.0904 -5.55112e-17
306 1 145.864 206.043 -5.55112e-17
307 1 85.1154 179.775 -5.55112e-17
308 1 145.667 193.392 -5.55112e-17
309 2 89.0272 48.3202 -5.55112e-17
310 1 40.5382 107.663 -5.55112e-17
311 1 78.9582 19.2038 -5.55112e-17
312 1 109.398 70.739 -5.55112e-17
313 2 73.2349 130.759 -5.55112e-17
314 1 128.093 133.565 -5.55112e-17
315 1 102.13 159.519 -5.55112e-17
316 1 8.54781 204.755 -5.55112e-17
317 1 126.955 3.99769 -5.55112e-17
318 1 168.94 115.278 -5.55112e-17
319 1 105.854 199.288 -5.55112e-17
320 1 72.2609 173.777 -5.55112e-17
321 1 73.5918 22.5274 -5.55112e-17
322 1 74.2098 120.826 -5.55112e-17
323 1 108.178 130.272 -5.55112e-17
324 1 113.191 110.073 -5.55112e-17
325 1 162.928 218.134 -5.55112e-17
326 1 146.709 167.479 -5.55112e-17
327 2 20.99 1.09345 -5.55112e-17
328 1 62.8595 204.08 -5.55112e-17
329 2 169.729 99.3449 -5.55112e-17
330 1 136.414 197.821 -5.55112e-17
331 1 110.852 120.499 -5.55112e-17
332 2 96.1527 194.92 -5.55112e-17
333 1 120.185 98.1339 -5.55112e-17
334 1 131.053 61.2594 -5.55112e-17
335 1 148.536 99.2941 -5.55112e-17
336 1 76.359 14.4017 -5.55112e-17
337 1 76.3755 19.1001 -5.55112e-17
338 1 68.7481 56.4883 -5.55112e-17
339 1 82.3302 128.897 -5.55112e-17
340 1 183.272 208.588 -5.55112e-17
341 1 94.6422 28.4445 -5.55112e-17
342 1 66.649 41.59 -5.55112e-17
343 1 58.4217 214.879 -5.55112e-17
344 1 110.129 34.6216 -5.55112e-17
345 1 58.9816 131.197 -5.55112e-17
346 1 146.005 73.9818 -5.55112e-17
347 1 152.873 104.654 -5.55112e-17
348 1 217.964 192.822 -5.55112e-17
349 1 6.35043 212.534 -5.55112e-17
350 2 105.982 123.769 -5.55112e-17
351 1 142.446 77.3301 -5.55112e-17
352 1 93.0006 128.479 -5.55112e-17
353 1 218.803 58.0191 -5.55112e-17
354 1 117.26 37.5766 -5.55112e-17
355 1 110.249 107.344 -5.55112e-17
356 1 58.717 212.528 -5.55112e-17
357 1 174.811 217.28 -5.55112e-17
358 1 29.1127 75.1183 -5.55112e-17
359 1 144.866 163.138 -5.55112e-17
360 1 213.793 101.742 -5.55112e-17
361 1 205.152 188.506 -5.55112e-17
362 1 166.336 139.012 -5.55112e-17
363 1 174.536 91.6112 -5.55112e-17
364 2 159.197 7.81894 -5.55112e-17
365 1 156.078 31.8843 -5.55112e-17
366 1 67.8955 64.1619 -5.55112e-17
367 1 199.433 102.57 -5.55112e-17
368 1 168.626 47.9892 -5.55112e-17
369 2 75.2663 177.201 -5.55112e-17
370 1 160.968 15.5992 -5.55112e-17
371 1 76.9673 182.257 -5.55112e-17
372 2 90.0996 186.692 -5.55112e-17
373 2 80.956 145.767 -5.55112e-17
374 1 164.168 98.5547 -5.55112e-17
375 1 216.804 131.36 -5.55112e-17
376 1 172.958 129.572 -5.55112e-17
377 1 165.989 163.603 -5.55112e-17
378 1 60.1755 71.7329 -5.55112e-17
379 1 44.6783 143.239 -5.55112e-17
380 1 136.509 44.3788 -5.55112e-17
381 1 158.047 53.836 -5.55112e-17
382 1 169.283 207.341 -5.55112e-17
383 1 92.3706 94.7039 -5.55112e-17
384 1 104.05 121.572 -5.55112e-17
385 1 13.0252 167.86 -5.55112e-17
386 2 70.5637 107.577 -5.55112e-17
387 1 168.73 139.393 -5.55112e-17
388 1 29.1224 90.8255 -5.55112e-17
389 1 100.843 42.7028 -5.55112e-17
390 2 136.312 120.604 -5.55112e-17
391 2 99.6391 62.7822 -5.55112e-17
392 1 24.8865 113.41 -5.55112e-17
393 1 52.6144 204.585 -5.55112e-17
394 1 217.9 63.5564 -5.55112e-17
395 1 196.777 12.0423 -5.55112e-17
396 1 212.013 79.0014 -5.55112e-17
397 1 109.601 216.912 -5.55112e-17
398 1 91.5616 193.452 -5.55112e-17
399 1 53.5901 195.068 -5.55112e-17
400 1 114.62 27.2397 -5.55112e-17
401 1 67.5058 118.172 -5.55112e-17
402 2 171.13 25.1379 -5.55112e-17
403 1 18.6791 44.9957 -5.55112e-17
404 1 154.648 155.839 -5.55112e-17
405 1 190.247 76.4164 -5.55112e-17
406 1 212.555 2.33547 -5.55112e-17
407 2 103.731 24.6618 -5.55112e-17
408 1 218.172 92.6454 -5.55112e-17
409 1 147.874 4.49114 -5.55112e-17
410 1 90.6572 157.759 -5.55112e-17
411 1 28.4942 29.2213 -5.55112e-17
412 1 166.038 110.062 -5.55112e-17
413 1 15.1799 93.0267 -5.55112e-17
414 1 21.0157 91.3031 -5.55112e-17
415 1 198.3 194.842 -5.55112e-17
416 1 111.337 83.3411 -5.55112e-17
417 1 27.172 118.148 -5.55112e-17
418 2 183.979 118.786 -5.55112e-17
419 1 15.1126 139.181 -5.55112e-17
420 2 124.008 94.0273 -5.55112e-17
421 1 80.413 120.621 -5.55112e-17
422 1 163.602 110.608 -5.55112e-17
423 2 209.311 88.8924 -5.55112e-17
424 1 165.316 42.4178 -5.55112e-17
425 1 46.7813 209.035 -5.55112e-17
426 1 171.474 111.237 -5.55112e-17
427 1 207.539 98.155 -5.55112e-17
428 1 6.84712 156.135 -5.55112e-17
429 1 111.864 20.4427 -5.55112e-17
430 1 168.361 102.23 -5.55112e-17
431 1 210.393 74.6148 -5.55112e-17
432 1 206.452 154.267 -5.55112e-17
433 1 161.776 213.973 -5.55112e-17
434 1 192.396 72.1569 -5.55112e-17
435 1 119.052 145.718 -5.55112e-17
436 1 118.664 148.746 -5.55112e-17
437 1 60.1567 105.547 -5.55112e-17
438 2 88.1874 184.257 -5.55112e-17
439 1 108.349 7.71266 -5.55112e-17
440 1 82.313 157.496 -5.55112e-17
441 1 192.474 214.455 -5.55112e-17
442 1 175.398 18.8954 -5.55112e-17
443 1 28.111 0.166292 -5.55112e-17
444 1 117.655 211.137 -5.55112e-17
445 1 163.316 19.4046 -5.55112e-17
446 1 131.041 88.927 -5.55112e-17
447 1 13.2084 0.932175 -5.55112e-17
448 1 141.878 9.86313 -5.55112e-17
449 1 107.254 189.769 -5.55112e-17
450 1 24.2934 175.955 -5.55112e-17
451 1 207.602 159.219 -5.55112e-17
452 1 83.418 185.922 -5.55112e-17
453 1 172.733 5.10672 -5.55112e-17
454 1 36.7695 174.726 -5.55112e-17
455 1 129.565 63.4187 -5.55112e-17
456 1 120.05 50.611 -5.55112e-17
457 1 49.0779 186.27 -5.55112e-17
458 1 102.171 162.206 -5.55112e-17
459 1 51.4714 29.0206 -5.55112e-17
460 1 127.674 164.563 -5.55112e-17
461 1 122.03 2.32052 -5.55112e-17
462 1 134.455 45.5857 -5.55112e-17
463 1 93.2508 40.3265 -5.55112e-17
464 1 29.9293 18.897 -5.55112e-17
465 1 213.03 13.4832 -5.55112e-17
466 1 176.575 114.141 -5.55112e-17
467 1 194.871 73.0061 -5.55112e-17
468 1 118.356 65.0141 -5.55112e-17
469 1 92.3885 0.727803 -5.55112e-17
470 1 130.488 56.3587 -5.55112e-17
471 1 96.5292 7.66808 -5.55112e-17
472 1 162.061 2.06497 -5.55112e-17
473 1 43.6016 77.8592 -5.55112e-17
474 1 20.0203 22.0356 -5.55112e-17
475 1 115.622 5.79789 -5.55112e-17
476 2 141.603 80.0062 -5.55112e-17
477 1 44.3971 3.18053 -5.55112e-17
478 1 148.336 32.1659 -5.55112e-17
479 1 148.822 85.5108 -5.55112e-17
480 1 11.5117 218.108 -5.55112e-17
481 1 86.4153 216.51 -5.55112e-17
482 1 136.477 31.9486 -5.55112e-17
483 1 18.0763 84.8711 -5.55112e-17
484 2 189.815 5.51808 -5.55112e-17
485 1 14.2883 99.524 -5.55112e-17
486 1 203.608 19.8268 -5.55112e-17
487 1 68.5713 185.882 -5.55112e-17
488 1 3.65115 187.209 -5.55112e-17
489 1 28.0945 35.8597 -5.55112e-17
490 1 148.599 67.558 -5.55112e-17
491 1 23.3543 95.4238 -5.55112e-17
492 1 67.4218 76.4399 -5.55112e-17
493 1 134.774 6.67307 -5.55112e-17
494 1 176.393 143.835 -5.55112e-17
495 1 58.6128 93.964 -5.55112e-17
496 2 82.9018 171.031 -5.55112e-17
497 1 200.607 185.776 -5.55112e-17
498 1 188.087 60.5425 -5.55112e-17
499 2 146.957 65.2441 -5.55112e-17
500 1 42.7307 62.0462 -5.55112e-17
501 2 129.468 152.792 -5.55112e-17
502 2 199.397 117.224 -5.55112e-17
503 1 207.416 208.031 -5.55112e-17
504 1 20.3191 104.668 -5.55112e-17
505 1 55.1845 32.9098 -5.55112e-17
506 1 107.271 106.5 -5.55112e-17
507 1 40.4303 42.8325 -5.55112e-17
508 1 15.4682 108.201 -5.55112e-17
509 2 175.481 15.7178 -5.55112e-17
510 2 208.066 200.064 -5.55112e-17
511 1 19.4777 129.767 -5.55112e-17
512 2 90.8831 135.862 -5.55112e-17
513 1 113.177 6.30334 -5.55112e-17
514 1 73.3076 86.8954 -5.55112e-17
515 1 151.085 211.812 -5.55112e-17
516 1 46.9713 146.985 -5.55112e-17
517 1 189.239 175.9 -5.55112e-17
518 2 92.3357 165.463 -5.55112e-17
519 1 111.748 147.515 -5.55112e-17
520 2 186.416 12.5959 -5.55112e-17
521 1 13.4329 12.4843 -5.55112e-17
522 1 10.2706 145.098 -5.55112e-17
523 1 198.491 49.4554 -5.55112e-17
524 1 90.1387 66.4819 -5.55112e-17
525 1 123.12 53.6627 -5.55112e-17
526 1 215.882 149.441 -5.55112e-17
527 1 51.8646 208.957 -5.55112e-17
528 1 174.459 68.5701 -5.55112e-17
529 1 85.193 93.8082 -5.55112e-17
530 1 207.501 210.586 -5.55112e-17
531 1 131.176 172.764 -5.55112e-17
532 1 216.562 119.076 -5.55112e-17
533 1 12.4524 92.1362 -5.55112e-17
534 1 108.501 5.47703 -5.55112e-17
535 1 114.18 148.27 -5.55112e-17
536 1 159.166 213.827 -5.55112e-17
537 1 102.97 123.953 -5.55112e-17
538 1 0.712381 28.611 -5.55112e-17
539 1 209.597 105.367 -5.55112e-17
540 1 196.355 34.2819 -5.55112e-17
541 1 116.586 20.3759 -5.55112e-17
542 1 21.2869 143.451 -5.55112e-17
543 1 46.9405 138.601 -5.55112e-17
544 1 141.697 158.472 -5.55112e-17
545 1 198.384 169.599 -5.55112e-17
546 1 67.6595 14.3404 -5.55112e-17
547 1 82.5762 160.151 -5.55112e-17
548 1 138.701 42.4044 -5.55112e-17
549 1 9.66526 36.9943 -5.55112e-17
550 2 63.5748 50.9153 -5.55112e-17
551 2 63.5257 164.044 -5.55112e-17
552 2 82.0567 209.106 -5.55112e-17
553 1 76.1917 23.7662 -5.55112e-17
554 1 183.42 85.7439 -5.55112e-17
555 2 121.671 10.0112 -5.55112e-17
556 1 209.436 209.196 -5.55112e-17
557 1 193.134 30.693 -5.55112e-17
558 1 26.9734 163.59 -5.55112e-17
559 1 97.9347 112.756 -5.55112e-17
560 1 199.005 83.154 -5.55112e-17
561 1 16.8317 25.0982 -5.55112e-17
562 1 110.722 91.8995 -5.55112e-17
563 2 119.671 38.844 -5.55112e-17
564 1 123.172 45.6669 -5.55112e-17
565 1 11.2711 77.2269 -5.55112e-17
566 1 41.0416 104.872 -5.55112e-17
567 1 160.523 218.905 -5.55112e-17
568 1 32.0663 86.7239 -5.55112e-17
569 1 110.257 169.157 -5.55112e-17
570 1 212.261 143.451 -5.55112e-17
571 1 178.448 29.3485 -5.55112e-17
572 1 192.807 211.868 -5.55112e-17
573 1 189.13 192.066 -5.55112e-17
574 1 208.214 47.0467 -5.55112e-17
575 1 63.3695 24.718 -5.55112e-17
576 1 167.757 200.527 -5.55112e-17
577 1 81.7699 138.617 -5.55112e-17
578 1 53.9367 43.6328 -5.55112e-17
579 1 37.6984 33.7944 -5.55112e-17
580 1 196.439 111.096 -5.55112e-17
581 1 30.1255 132.185 -5.55112e-17
582 1 203.648 48.6378 -5.55112e-17
583 1 209.327 119.316 -5.55112e-17
584 2 167.782 153.287 -5.55112e-17
585 1 107.4 169.237 -5.55112e-17
586 1 60.8055 61.7559 -5.55112e-17
587 1 105.085 94.5914 -5.55112e-17
588 1 184.178 54.6509 -5.55112e-17
589 1 183.771 115.979 -5.55112e-17
590 1 135.41 71.7301 -5.55112e-17
591 1 190.394 62.307 -5.55112e-17
592 1 50.4314 107.203 -5.55112e-17
593 1 151.836 189.533 -5.55112e-17
594 1 23.3335 69.716 -5.55112e-17
595 1 31.8395 185.631 -5.55112e-17
596 1 162.499 154.65 -5.55112e-17
597 2 162.543 40.89 -5.55112e-17
598 1 4.30362 194.174 -5.55112e-17
599 1 2.1651 70.1388 -5.55112e-17
600 1 196.037 108.808 -5.55112e-17
601 1 159.798 96.8616 -5.55112e-17
602 1 106.976 54.7832 -5.55112e-17
603 1 76.4978 179.61 -5.55112e-17
604 1 97.6518 37.9072 -5.55112e-17
605 2 80.3835 133.493 -5.55112e-17
606 1 186.73 169.238 -5.55112e-17
607 2 212.205 218.662 -5.55112e-17
608 1 172.279 197.944 -5.55112e-17
609 1 39.6467 120.633 -5.55112e-17
610 1 132.099 6.25264 -5.55112e-17
611 1 49.7864 216.49 -5.55112e-17
612 1 135.218 173.827 -5.55112e-17
613 1 138.808 4.92289 -5.55112e-17
614 2 44.8227 101.825 -5.55112e-17
615 1 60.2643 167.223 -5.55112e-17
616 1 51.3251 214.442 -5.55112e-17
617 1 175.546 176.916 -5.55112e-17
618 1 36.1351 207.745 -5.55112e-17
619 1 213.952 190.706 -5.55112e-17
620 1 34.9985 202.968 -5.55112e-17
621 1 49.9942 24.6133 -5.55112e-17
622 1 112.307 35.1381 -5.55112e-17
623 1 218.79 114.12 -5.55112e-17
624 1 121.031 65.3803 -5.55112e-17
625 1 124.863 180.077 -5.55112e-17
626 1 85.6987 45.7847 -5.55112e-17
627 1 151.277 132.472 -5.55112e-17
628 1 75.5171 93.9713 -5.55112e-17
629 1 25.4858 199.499 -5.55112e-17
630 2 176.075 0.775525 -5.55112e-17
631 1 8.17299 191.552 -5.55112e-17
632 1 56.1511 56.0948 -5.55112e-17
633 1 145.691 184.483 -5.55112e-17
634 1 124.113 171.819 -5.55112e-17
635 1 211.324 204.459 -5.55112e-17
636 1 0.494817 15.3353 -5.55112e-17
637 1 157.834 209.557 -5.55112e-17
638 1 72.2912 70.2816 -5.55112e-17
639 2 178.39 77.9714 -5.55112e-17
640 1 72.1284 16.3388 -5.55112e-17
641 1 81.3184 203.941 -5.55112e-17
642 1 43.5953 47.3251 -5.55112e-17
643 2 107.099 162.159 -5.55112e-17
644 1 33.1601 167.906 -5.55112e-17
645 1 78.9869 109.123 -5.55112e-17
646 2 140.351 144.151 -5.55112e-17
647 1 160.694 79.153 -5.55112e-17
648 1 81.3319 75.0896 -5.55112e-17
649 2 171.992 73.4166 -5.55112e-17
650 1 149.587 26.2716 -5.55112e-17
651 1 180.495 73.1039 -5.55112e-17
652 1 144.456 78.6778 -5.55112e-17
653 1 10.9378 90.4009 -5.55112e-17
654 1 89.0417 87.9724 -5.55112e-17
655 2 49.7704 189.242 -5.55112e-17
656 1 161.317 111.514 -5.55112e-17
657 2 84.7816 197.919 -5.55112e-17
658 1 115.634 45.6231 -5.55112e-17
659 2 18.543 112.532 -5.55112e-17
660 1 31.8669 107.289 -5.55112e-17
661 1 68.7933 105.236 -5.55112e-17
662 1 199.603 149.338 -5.55112e-17
663 1 43.3337 131.253 -5.55112e-17
664 1 82.33 118.474 -5.55112e-17
665 1 64.2016 86.5521 -5.55112e-17
666 2 54.5728 154.927 -5.55112e-17
667 1 85.9857 60.6241 -5.55112e-17
668 2 30.3934 21.7526 -5.55112e-17
669 1 31.7281 75.2941 -5.55112e-17
670 1 66.6188 160.25 -5.55112e-17
671 2 184.399 141.614 -5.55112e-17
672 1 162.722 113.467 -5.55112e-17
673 1 65.697 141.936 -5.55112e-17
674 1 3.78583 8.85204 -5.55112e-17
675 1 218.475 133.138 -5.55112e-17
676 1 72.16 178.737 -5.55112e-17
677 1 77.2914 89.6092 -5.55112e-17
678 1 35.3559 143.12 -5.55112e-17
679 2 13.6914 112.777 -5.55112e-17
680 1 140.32 150.6 -5.55112e-17
681 2 196.074 171.234 -5.55112e-17
682 1 18.1733 101.533 -5.55112e-17
683 1 149.838 121.694 -5.55112e-17
684 1 20.8739 158.384 -5.55112e-17
685 1 39.6233 30.6696 -5.55112e-17
686 1 97.0014 151.695 -5.55112e-17
687 1 101.704 119.612 -5.55112e-17
688 1 143.517 42.9997 -5.55112e-17
689 2 171.811 172.952 -5.55112e-17
690 1 79.9473 199.456 -5.55112e-17
691 1 215.536 40.9596 -5.55112e-17
692 1 35.608 109.715 -5.55112e-17
693 1 29.6033 51.9913 -5.55112e-17
694 1 207.322 35.0017 -5.55112e-17
695 1 158.784 112.237 -5.55112e-17
696 1 126.886 53.5858 -5.55112e-17
697 1 17.594 69.3945 -5.55112e-17
698 1 0.619556 119.884 -5.55112e-17
699 1 184.574 37.9415 -5.55112e-17
700 1 208.824 194.833 -5.55112e-17
701 1 109.849 59.6997 -5.55112e-17
702 1 218.91 82.4113 -5.55112e-17
703 2 166.456 156.575 -5.55112e-17
704 1 43.5484 167.111 -5.55112e-17
705 2 189.909 56.4987 -5.55112e-17
706 1 9.9084 99.13 -5.55112e-17
707 1 176.271 156.207 -5.55112e-17
708 1 93.972 192.958 -5.55112e-17
709 1 8.12358 41.818 -5.55112e-17
710 1 215.007 36.1059 -5.55112e-17
711 1 129.763 39.4944 -5.55112e-17
712 1 161.399 28.9683 -5.55112e-17
713 1 25.3678 35.0285 -5.55112e-17
714 1 49.8432 89.2379 -5.55112e-17
715 1 117.745 186.001 -5.55112e-17
716 1 188.431 24.6336 -5.55112e-17
717 1 212.433 138.079 -5.55112e-17
718 1 166.871 182.571 -5.55112e-17
719 2 55.56 119.701 -5.55112e-17
720 1 13.638 159.02 -5.55112e-17
721 1 84.9092 188.35 -5.55112e-17
722 1 70.5395 131.554 -5.55112e-17
723 2 151.52 169.087 -5.55112e-17
724 1 83.1724 104.43 -5.55112e-17
725 1 89.61 0.308364 -5.55112e-17
726 1 161.471 74.6448 -5.55112e-17
727 1 188.891 194.879 -5.55112e-17
728 2 204.998 160.691 -5.55112e-17
729 1 42.5341 12.9422 -5.55112e-17
730 1 178.893 83.2937 -5.55112e-17
731 1 36.532 75.5659 -5.55112e-17
732 1 30.4886 77.5948 -5.55112e-17
733 1 25.31 24.6787 -5.55112e-17
734 1 69.1416 40.5428 -5.55112e-17
735 1 52.2387 115.445 -5.55112e-17
736 2 200.705 77.6133 -5.55112e-17
737 1 187.657 20.8117 -5.55112e-17
738 1 18.9311 97.3644 -5.55112e-17
739 1 114.049 177.002 -5.55112e-17
740 1 142.213 209.391 -5.55112e-17
741 2 66.3697 114.889 -5.55112e-17
742 1 80.7101 3.18263 -5.55112e-17
743 1 32.8674 156.435 -5.55112e-17
744 2 126.491 46.5152 -5.55112e-17
745 1 23.7761 182.736 -5.55112e-17
746 1 8.73706 160.575 -5.55112e-17
747 2 150.212 147.173 -5.55112e-17
748 1 40.1058 97.802 -5.55112e-17
749 1 205.191 214.466 -5.55112e-17
750 1 55.6869 15.4452 -5.55112e-17
751 1 91.6094 24.0245 -5.55112e-17
752 1 205.338 212.047 -5.55112e-17
753 1 166.729 9.88684 -5.55112e-17
754 1 35.8284 77.9889 -5.55112e-17
755 1 8.03586 188.658 -5.55112e-17
756 2 84.1125 24.409 -5.55112e-17
757 1 99.5878 202.272 -5.55112e-17
758 1 103.487 43.0325 -5.55112e-17
759 1 116.224 176.572 -5.55112e-17
760 1 189.927 48.4338 -5.55112e-17
761 1 32.0816 60.1856 -5.55112e-17
762 1 11.3377 34.5185 -5.55112e-17
763 1 147.602 203.04 -5.55112e-17
764 2 115.25 124.078 -5.55112e-17
765 1 25.3978 40.4043 -5.55112e-17
766 1 40.414 26.6279 -5.55112e-17
767 1 129.296 171.145 -5.55112e-17
768 1 187.141 193.369 -5.55112e-17
769 1 75.3191 163.888 -5.55112e-17
770 2 32.3417 144.049 -5.55112e-17
771 1 134.357 67.765 -5.55112e-17
772 1 184.874 136.115 -5.55112e-17
773 1 53.3113 82.3073 -5.55112e-17
774 1 103.868 155.718 -5.55112e-17
775 1 99.0746 8.35417 -5.55112e-17
776 1 10.0608 164.343 -5.55112e-17
777 1 23.0454 134.242 -5.55112e-17
778 1 89.0089 173.295 -5.55112e-17
779 1 100.287 217.712 -5.55112e-17
780 1 117.287 151.674 -5.55112e-17
781 1 27.2396 135.541 -5.55112e-17
782 1 22.1525 180.947 -5.55112e-17
783 1 139.799 24.3469 -5.55112e-17
784 2 37.0202 47.2846 -5.55112e-17
785 1 7.44172 172.766 -5.55112e-17
786 1 21.6118 97.2901 -5.55112e-17
787 1 123.371 7.35286 -5.55112e-17
788 1 177.941 163.628 -5.55112e-17
789 2 38.6451 66.8723 -5.55112e-17
790 1 210.607 17.0011 -5.55112e-17
791 2 95.4338 177.865 -5.55112e-17
792 2 194.549 97.2503 -5.55112e-17
793 2 69.555 182.815 -5.55112e-17
794 1 10.414 28.4946 -5.55112e-17
795 1 67.4799 107.924 -5.55112e-17
796 1 100.553 204.733 -5.55112e-17
797 1 112.484 164.149 -5.55112e-17
798 2 28.3557 154.331 -5.55112e-17
799 2 197.174 14.8186 -5.55112e-17
800 2 18.3415 11.4302 -5.55112e-17
801 1 7.55844 216.706 -5.55112e-17
802 1 113.896 179.891 -5.55112e-17
803 1 125.571 51.6081 -5.55112e-17
804 2 118.899 177.437 -5.55112e-17
805 1 98.8594 30.1518 -5.55112e-17
806 1 21.533 212.864 -5.55112e-17
807 2 206.007 39.7305 -5.55112e-17
808 1 84.6252 116.967 -5.55112e-17
809 2 53.4545 142.649 -5.55112e-17
810 1 139.874 118.096 -5.55112e-17
811 1 174.001 170.171 -5.55112e-17
812 1 186.874 119.193 -5.55112e-17
813 2 157.392 0.0249184 -5.55112e-17
814 1 85.3494 140.821 -5.55112e-17
815 1 167.446 161.409 -5.55112e-17
816 1 163.313 44.0434 -5.55112e-17
817 1 200.128 138.695 -5.55112e-17
818 1 11.0539 19.4191 -5.55112e-17
819 1 48.2385 93.5271 -5.55112e-17
820 1 13.2593 196.155 -5.55112e-17
821 1 20.9029 40.2707 -5.55112e-17
822 2 144.544 59.7183 -5.55112e-17
823 2 81.8468 193.355 -5.55112e-17
824 1 49.0153 134.519 -5.55112e-17
825 1 193.851 169.012 -5.55112e-17
826 1 213.982 162.229 -5.55112e-17
827 1 115.415 115.425 -5.55112e-17
828 1 74.1337 12.4335 -5.55112e-17
829 1 58.5867 21.1719 -5.55112e-17
830 1 101.207 214.989 -5.55112e-17
831 1 161.802 182.232 -5.55112e-17
832 1 134.304 13.8976 -5.55112e-17
833 1 139.657 105.266 -5.55112e-17
834 1 164.043 130.547 -5.55112e-17
835 1 218.541 21.5642 -5.55112e-17
836 1 207.906 12.843 -5.55112e-17
837 1 157.053 148.988 -5.55112e-17
838 1 52.596 112.891 -5.55112e-17
839 2 174.03 154.336 -5.55112e-17
840 1 181.913 151.054 -5.55112e-17
841 2 54.7647 25.3243 -5.55112e-17
842 1 15.5508 168.494 -5.55112e-17
843 2 168.588 91.73 -5.55112e-17
844 1 218.078 7.91202 -5.55112e-17
845 1 93.7853 131.655 -5.55112e-17
846 1 39.2257 19.767 -5.55112e-17
847 1 116.765 15.1004 -5.55112e-17
848 1 201.882 145.808 -5.55112e-17
849 1 31.3166 16.8433 -5.55112e-17
850 1 83.5821 107.119 -5.55112e-17
851 1 32.5457 19.8651 -5.55112e-17
852 1 44.9579 145.678 -5.55112e-17
853 1 115.096 88.262 -5.55112e-17
854 1 14.3642 153.408 -5.55112e-17
855 1 25.2011 71.9002 -5.55112e-17
856 1 58.4152 202.497 -5.55112e-17