ITEM: TIMESTEP
0
ITEM: NUMBER OF ATOMS
7200
ITEM: BOX BOUNDS xy xz yz pp pp pp
0.0000000000000000e+00 2.1900000000000000e+02 0.0000000000000000e+00
0.0000000000000000e+00 2.1900000000000000e+02 0.0000000000000000e+00
-3.6499999999999999e-01 3.6499999999999999e-01 0.0000000000000000e+00
ITEM: ATOMS id type x y z
1 1 34.5918 69.6425 -5.55112e-17
2 1 162.898 95.5318 -5.55112e-17
3 1 207.397 121.766 -5.55112e-17
4 1 52.0361 178.364 -5.55112e-17
5 1 161.155 131.281 -5.55112e-17
6 1 218.296 172.371 -5.55112e-17
7 1 66.08 192.408 -5.55112e-17
8 2 77.1598 108.938 -5.55112e-17
9 1 104.755 22.5608 -5.55112e-17
10 2 182.194 65.418 -5.55112e-17
11 1 130.704 13.5541 -5.55112e-17
12 1 11.444 134.915 -5.55112e-17
13 2 196.12 187.423 -5.55112e-17
14 1 173.687 34.3098 -5.55112e-17
15 1 159.053 93.2937 -5.55112e-17
16 2 153.828 148.479 -5.55112e-17
17 1 131.546 64.0217 -5.55112e-17
18 2 39.9259 103.68 -5.55112e-17
19 1 174.179 92.1781 -5.55112e-17
20 1 217.767 177.624 -5.55112e-17
21 1 68.9138 7.59828 -5.55112e-17
22 2 53.4988 14.2014 -5.55112e-17
23 2 98.068 73.4101 -5.55112e-17
24 1 28.9343 191.245 -5.55112e-17
25 1 76.6643 105.924 -5.55112e-17
26 2 13.7087 155.497 -5.55112e-17
27 1 194.018 22.5749 -5.55112e-17
28 2 111.954 153.997 -5.55112e-17
29 1 185.734 139.699 -5.55112e-17
30 1 125.763 126.454 -5.55112e-17
31 1 41.0543 156.106 -5.55112e-17
32 1 74.5599 79.8303 -5.55112e-17
33 1 67.4142 153.734 -5.55112e-17
34 1 141.127 57.8208 -5.55112e-17
35 1 198.296 213.147 -5.55112e-17
36 1 49.8124 90.8173 -5.55112e-17
37 2 32.5831 43.2443 -5.55112e-17
38 1 26.2904 171.949 -5.55112e-17
39 1 210.345 44.9315 -5.55112e-17
40 1 29.6713 116.173 -5.55112e-17
41 1 67.001 113.148 -5.55112e-17
42 1 145.667 136.679 -5.55112e-17
43 1 153.488 41.0246 -5.55112e-17
44 1 211.108 127.971 -5.55112e-17
45 1 14.5202 168.545 -5.55112e-17
46 1 115.148 215.544 -5.55112e-17
47 1 51.2152 97.9235 -5.55112e-17
48 2 16.9388 118.043 -5.55112e-17
49 1 132.912 162.994 -5.55112e-17
50 1 55.9544 115.439 -5.55112e-17
51 1 183.425 58.7248 -5.55112e-17
52 1 96.1816 31.4317 -5.55112e-17
53 1 206.457 125.784 -5.55112e-17
54 1 167.517 138.643 -5.55112e-17
55 1 131.142 66.6916 -5.55112e-17
56 1 173.439 142.852 -5.55112e-17
57 2 160.425 208.373 -5.55112e-17
58 1 9.76481 20.5347 -5.55112e-17
59 1 36.8435 149.82 -5.55112e-17
60 2 119.27 199.311 -5.55112e-17
61 2 15.089 125.559 -5.55112e-17
62 1 63.1846 78.9305 -5.55112e-17
63 1 29.3569 149.562 -5.55112e-17
64 1 18.645 159.26 -5.55112e-17
65 1 156.055 191.895 -5.55112e-17
66 1 69.6692 32.1845 -5.55112e-17
67 1 16.544 182.629 -5.55112e-17
68 1 98.4604 152.488 -5.55112e-17
69 1 149.531 172.872 -5.55112e-17
70 1 60.6628 130.736 -5.55112e-17
71 1 114.154 213.009 -5.55112e-17
72 1 216.788 152.002 -5.55112e-17
73 1 58.1822 131.154 -5.55112e-17
74 1 190.85 12.2364 -5.55112e-17
75 2 36.2687 41.7092 -5.55112e-17
76 1 132.866 32.1706 -5.55112e-17
77 1 187.906 47.432 -5.55112e-17
78 1 64.9082 121.698 -5.55112e-17
79 2 176.359 100.866 -5.55112e-17
80 1 168.794 31.5636 -5.55112e-17
81 1 142.322 83.3701 -5.55112e-17
82 1 3.86418 25.5036 -5.55112e-17
83 2 118.5 157.681 -5.55112e-17
84 1 1.78737 61.1846 -5.55112e-17
85 1 94.0924 110.975 -5.55112e-17
86 1 126.417 124.208 -5.55112e-17
87 1 62.4581 123.635 -5.55112e-17
88 1 93.3639 103.612 -5.55112e-17
89 2 190.812 39.7871 -5.55112e-17
90 2 30.7936 39.9748 -5.55112e-17
91 1 171.004 171.385 -5.55112e-17
92 2 118.478 50.3992 -5.55112e-17
93 1 3.47316 186.538 -5.55112e-17
94 2 96.3434 54.7855 -5.55112e-17
95 1 181.964 95.3553 -5.55112e-17
96 1 182.526 177.125 -5.55112e-17
97 1 216.962 212.653 -5.55112e-17
98 1 15.0289 122.68 -5.55112e-17
99 1 202.093 24.762 -5.55112e-17
100 1 119.545 47.6547 -5.55112e-17
101 1 48.4317 14.8787 -5.55112e-17
102 1 83.8743 145.326 -5.55112e-17
103 1 81.8555 161.088 -5.55112e-17
104 1 59.1101 91.4506 -5.55112e-17
105 1 55.094 154.692 -5.55112e-17
106 1 103.772 145.995 -5.55112e-17
107 2 81.795 13.4744 -5.55112e-17
108 1 185.685 211.491 -5.55112e-17
109 1 13.1249 67.1483 -5.55112e-17
110 1 137.544 171.681 -5.55112e-17
111 1 11.0794 211.335 -5.55112e-17
112 1 122.067 121.174 -5.55112e-17
113 1 88.1293 16.329 -5.55112e-17
114 1 59.9562 17.5932 -5.55112e-17
115 1 22.2304 115.707 -5.55112e-17
116 2 84.1522 60.4878 -5.55112e-17
117 1 216.17 113.806 -5.55112e-17
118 1 141.648 97.7927 -5.55112e-17
119 2 142.745 148.351 -5.55112e-17
120 1 42.6401 190.296 -5.55112e-17
121 1 27.118 139.339 -5.55112e-17
122 1 34.6662 148.786 -5.55112e-17
123 1 154.87 217.01 -5.55112e-17
124 1 112.127 126.395 -5.55112e-17
125 1 134.451 155.582 -5.55112e-17
126 1 21.2244 155.638 -5.55112e-17
127 1 41.8804 13.1712 -5.55112e-17
128 1 190.767 200.366 -5.55112e-17
129 1 57.6228 191.65 -5.55112e-17
130 1 133.384 35.0349 -5.55112e-17
131 1 170.233 86.6856 -5.55112e-17
132 2 57.9083 51.5642 -5.55112e-17
133 1 136.393 25.0607 -5.55112e-17
134 1 125.327 138.817 -5.55112e-17
135 1 171.693 99.4765 -5.55112e-17
136 1 101.279 133.875 -5.55112e-17
137 1 127.265 168.761 -5.55112e-17
138 1 106.813 55.0351 -5.55112e-17
139 1 142.228 201.339 -5.55112e-17
140 2 38.8967 184.131 -5.55112e-17
141 1 81.0547 105.287 -5.55112e-17
142 2 14.4287 188.019 -5.55112e-17
143 1 117.727 120.561 -5.55112e-17
144 2 37.4054 87.6071 -5.55112e-17
145 1 182.115 32.6525 -5.55112e-17
146 1 37.9358 152.321 -5.55112e-17
147 1 99.0031 64.8117 -5.55112e-17
148 1 48.5106 30.0755 -5.55112e-17
149 1 1.3144 145.87 -5.55112e-17
150 1 205.138 72.4596 -5.55112e-17
151 1 48.4951 152.424 -5.55112e-17
152 1 131.953 160.906 -5.55112e-17
153 2 44.4249 23.7986 -5.55112e-17
154 1 95.3068 67.2404 -5.55112e-17
155 1 163.533 158.024 -5.55112e-17
156 2 195.273 123.915 -5.55112e-17
157 1 49.6846 114.732 -5.55112e-17
158 1 9.95969 84.3298 -5.55112e-17
159 1 137.083 155.378 -5.55112e-17
160 1 78.9708 65.6481 -5.55112e-17
161 1 28.7934 18.6797 -5.55112e-17
162 1 121.946 111.778 -5.55112e-17
163 1 97.2573 46.3929 -5.55112e-17
164 1 111.702 79.6174 -5.55112e-17
165 1 31.2263 52.2843 -5.55112e-17
166 2 125.904 57.1752 -5.55112e-17
167 1 38.6864 148.658 -5.55112e-17
168 1 57.1437 171.611 -5.55112e-17
169 1 47.3799 58.2367 -5.55112e-17
170 1 118.962 100.171 -5.55112e-17
171 1 182.149 100.757 -5.55112e-17
172 1 126.331 75.2859 -5.55112e-17
173 1 68.3005 94.1736 -5.55112e-17
174 1 25.3498 84.338 -5.55112e-17
175 2 15.7206 95.7203 -5.55112e-17
176 1 132.524 208.793 -5.55112e-17
177 2 134.266 168.155 -5.55112e-17
178 1 37.4846 49.1247 -5.55112e-17
179 1 188.632 95.5675 -5.55112e-17
180 1 134.162 165.209 -5.55112e-17
181 1 92.8909 133.056 -5.55112e-17
182 2 170.122 36.5921 -5.55112e-17
183 1 26.4532 7.28377 -5.55112e-17
184 1 164.293 199.243 -5.55112e-17
185 2 148.733 8.99255 -5.55112e-17
186 2 142.986 71.4753 -5.55112e-17
187 1 86.356 122.154 -5.55112e-17
188 1 162.075 142.045 -5.55112e-17
189 1 19.7928 119.347 -5.55112e-17
190 2 206.586 33.7463 -5.55112e-17
191 1 5.95973 111.856 -5.55112e-17
192 2 46.0153 141.831 -5.55112e-17
193 2 87.7632 216.032 -5.55112e-17
194 1 27.5166 163.132 -5.55112e-17
195 1 149.581 76.0064 -5.55112e-17
196 1 107.848 200.404 -5.55112e-17
197 1 140.583 123.823 -5.55112e-17
198 2 13.9659 180.851 -5.55112e-17
199 1 90.6262 23.2811 -5.55112e-17
200 1 53.0048 11.6905 -5.55112e-17
201 2 178.149 5.8729 -5.55112e-17
202 1 129.321 95.7251 -5.55112e-17
203 1 143.051 59.449 -5.55112e-17
204 1 103.343 44.7098 -5.55112e-17
205 2 187.52 142.085 -5.55112e-17
206 1 101.89 11.3187 -5.55112e-17
207 1 157.077 186.693 -5.55112e-17
208 1 195.268 202.109 -5.55112e-17
209 1 133.94 101.232 -5.55112e-17
210 1 163.395 111.148 -5.55112e-17
211 2 189.72 80.7036 -5.55112e-17
212 1 135.565 69.7691 -5.55112e-17
213 1 21.3363 71.8669 -5.55112e-17
214 1 201.253 22.4135 -5.55112e-17
215 1 35.2022 44.3544 -5.55112e-17
216 1 184.401 34.1054 -5.55112e-17
217 1 92.6064 9.98924 -5.55112e-17
218 2 126.217 7.90111 -5.55112e-17
219 1 80.3204 102.158 -5.55112e-17
220 2 147.25 82.501 -5.55112e-17
221 1 174.39 53.9214 -5.55112e-17
222 1 9.95954 55.8987 -5.55112e-17
223 1 77.5281 14.8695 -5.55112e-17
224 2 212.863 51.7822 -5.55112e-17
225 1 45.6856 173.735 -5.55112e-17
226 1 157.957 78.8117 -5.55112e-17
227 2 211.381 30.8393 -5.55112e-17
228 1 114.859 154.665 -5.55112e-17
229 1 146.689 99.236 -5.55112e-17
230 1 180.539 98.8213 -5.55112e-17
231 1 88.3917 150.618 -5.55112e-17
232 1 191.899 43.3756 -5.55112e-17
233 1 72.4207 44.5838 -5.55112e-17
234 1 217.146 87.4361 -5.55112e-17
235 1 51.8019 109.117 -5.55112e-17
236 1 162.083 67.234 -5.55112e-17
237 1 76.2661 35.8891 -5.55112e-17
238 1 43.0642 132.718 -5.55112e-17
239 2 196.403 129.552 -5.55112e-17
240 1 167.488 11.5967 -5.55112e-17
241 2 22.3521 142.21 -5.55112e-17
242 2 71.1392 12.4262 -5.55112e-17
243 2 44.528 41.5273 -5.55112e-17
244 1 180.041 38.6834 -5.55112e-17
245 1 98.6124 176.917 -5.55112e-17
246 1 51.9058 216.191 -5.55112e-17
247 1 171.643 106.733 -5.55112e-17
248 1 112.96 120.065 -5.55112e-17
249 1 14.6714 18.9125 -5.55112e-17
250 2 48.8373 17.6755 -5.55112e-17
251 1 154.709 154.566 -5.55112e-17
252 1 129.53 4.0264 -5.55112e-17
253 1 59.5619 159.187 -5.55112e-17
254 2 73.7968 192.889 -5.55112e-17
255 1 104.357 10.0302 -5.55112e-17
256 1 136.824 178.878 -5.55112e-17
257 1 142.975 31.6746 -5.55112e-17
258 2 28.8528 218.139 -5.55112e-17
259 1 22.9825 185.557 -5.55112e-17
260 1 205.354 114.934 -5.55112e-17
261 1 113.18 128.725 -5.55112e-17
262 1 131.68 28.3033 -5.55112e-17
263 1 45.7476 21.5293 -5.55112e-17
264 1 27.6949 207.226 -5.55112e-17
265 1 211.194 61.9475 -5.55112e-17
266 1 163.475 83.3002 -5.55112e-17
267 1 157.88 181.289 -5.55112e-17
268 1 109.395 169.274 -5.55112e-17
269 1 126.248 24.4095 -5.55112e-17
270 1 112.793 190.619 -5.55112e-17
271 1 6.45666 92.0447 -5.55112e-17
272 1 148.726 197.779 -5.55112e-17
273 1 154.499 208.916 -5.55112e-17
274 2 217.171 118.016 -5.55112e-17
275 1 155.873 118.558 -5.55112e-17
276 2 128.136 47.4177 -5.55112e-17
277 2 146.627 192.828 -5.55112e-17
278 1 198.002 19.1953 -5.55112e-17
279 2 213.633 9.80097 -5.55112e-17
280 1 114.658 6.26872 -5.55112e-17
281 1 70.1306 43.5238 -5.55112e-17
282 1 17.8374 103.159 -5.55112e-17
283 1 203.186 1.95573 -5.55112e-17
284 1 114.377 151.556 -5.55112e-17
285 1 8.94873 183.117 -5.55112e-17
286 2 63.075 61.0934 -5.55112e-17
287 1 51.9096 130.18 -5.55112e-17
288 1 41.7774 34.2907 -5.55112e-17
289 1 1.64915 204.58 -5.55112e-17
290 1 146.881 141.17 -5.55112e-17
291 1 94.8844 126.044 -5.55112e-17
292 2 141.642 133.291 -5.55112e-17
293 2 210.334 115.197 -5.55112e-17
294 1 128.827 81.2818 -5.55112e-17
295 1 46.9172 144.261 -5.55112e-17
296 1 91.9594 176.314 -5.55112e-17
297 1 151.262 4.38643 -5.55112e-17
298 1 165.226 175.206 -5.55112e-17
299 1 208.398 194.992 -5.55112e-17
300 2 163.305 59.913 -5.55112e-17
301 1 149.8 41.6256 -5.55112e-17
302 1 66.2007 20.4871 -5.55112e-17
303 2 178.324 47.7797 -5.55112e-17
304 2 104.661 38.3731 -5.55112e-17
305 1 62.0673 207.309 -5.55112e-17
306 1 103.482 189.512 -5.55112e-17
307 1 66.7673 166.447 -5.55112e-17
308 1 135.809 103.55 -5.55112e-17
309 2 103.517 136.037 -5.55112e-17
310 1 214.665 214.105 -5.55112e-17
311 1 216.161 202.961 -5.55112e-17
312 1 2.84149 98.1919 -5.55112e-17
313 2 208.45 28.8119 -5.55112e-17
314 1 203.538 158.622 -5.55112e-17
315 1 143.057 122.626 -5.55112e-17
316 1 148.218 208.472 -5.55112e-17
317 1 110.891 53.3981 -5.55112e-17
318 1 163.876 24.608 -5.55112e-17
319 1 103.204 170.517 -5.55112e-17
320 1 153.896 127.844 -5.55112e-17
321 1 61.0343 215.234 -5.55112e-17
322 1 113.493 59.8175 -5.55112e-17
323 1 93.496 177.775 -5.55112e-17
324 1 195.128 177.211 -5.55112e-17
325 1 30.8309 147.564 -5.55112e-17
326 1 34.8538 205.991 -5.55112e-17
327 2 132.333 43.5353 -5.55112e-17
328 1 66.0424 86.7031 -5.55112e-17
329 2 89.5863 61.1577 -5.55112e-17
330 1 1.08996 179.3 -5.55112e-17
331 1 130.252 210.13 -5.55112e-17
332 2 81.4451 120.657 -5.55112e-17
333 1 213.153 174.513 -5.55112e-17
334 1 121.563 201.513 -5.55112e-17
335 1 145.436 87.0371 -5.55112e-17
336 1 200.47 10.038 -5.55112e-17
337 1 84.0717 78.9961 -5.55112e-17
338 1 168.213 34.1919 -5.55112e-17
339 1 206.764 26.2763 -5.55112e-17
340 1 28.707 53.2298 -5.55112e-17
341 1 175.161 217.337 -5.55112e-17
342 1 191.066 48.1359 -5.55112e-17
343 1 83.0181 55.3361 -5.55112e-17
344 1 90.1087 10.9589 -5.55112e-17
345 1 76.036 59.7522 -5.55112e-17
346 1 30.0194 206.685 -5.55112e-17
347 1 84.7528 111.381 -5.55112e-17
348 1 153.464 19.6936 -5.55112e-17
349 1 121.567 49.1418 -5.55112e-17
350 2 190.891 21.6651 -5.55112e-17
351 1 107.061 121.174 -5.55112e-17
352 1 44.5889 104.777 -5.55112e-17
353 1 61.6138 25.4263 -5.55112e-17
354 1 174.092 73.7537 -5.55112e-17
355 1 10.3931 6.07655 -5.55112e-17
356 1 130.244 130.122 -5.55112e-17
357 1 169.872 169.196 -5.55112e-17
358 1 48.7261 48.0865 -5.55112e-17
359 1 51.8963 196.553 -5.55112e-17
360 1 0.191768 19.5977 -5.55112e-17
361 1 178.714 180.622 -5.55112e-17
362 1 30.8902 20.235 -5.55112e-17
363 1 10.0542 152.232 -5.55112e-17
364 2 176.372 62.4992 -5.55112e-17
365 1 31.2785 157.001 -5.55112e-17
366 1 130.419 112.734 -5.55112e-17
367 1 18.3884 145.323 -5.55112e-17
368 1 84.2079 40.6784 -5.55112e-17
369 2 17.4026 176.848 -5.55112e-17
370 1 39.0977 46.9202 -5.55112e-17
371 1 122.591 153.959 -5.55112e-17
372 2 150.817 82.0573 -5.55112e-17
373 2 135.295 160.923 -5.55112e-17
374 1 58.047 64.9526 -5.55112e-17
375 1 100.108 170.145 -5.55112e-17
376 1 167.697 85.7958 -5.55112e-17
377 1 136.241 134.681 -5.55112e-17
378 1 190.332 83.6547 -5.55112e-17
379 1 45.5511 161.58 -5.55112e-17
380 1 140.516 18.9914 -5.55112e-17
381 1 159.079 5.68596 -5.55112e-17
382 1 117.303 102.334 -5.55112e-17
383 1 163.52 179.183 -5.55112e-17
384 1 211.47 208.306 -5.55112e-17
385 1 50.6794 14.9757 -5.55112e-17
386 2 161.832 26.9573 -5.55112e-17
387 1 215.442 189.207 -5.55112e-17
388 1 196.792 41.7749 -5.55112e-17
389 1 98.6986 111.329 -5.55112e-17
390 2 195.19 159.009 -5.55112e-17
391 2 198.428 197.474 -5.55112e-17
392 1 167.891 131.43 -5.55112e-17
393 1 181.556 49.9416 -5.55112e-17
394 1 114.229 168.826 -5.55112e-17
395 1 50.4504 160.014 -5.55112e-17
396 1 126.585 10.7413 -5.55112e-17
397 1 108.043 64.2133 -5.55112e-17
398 1 78.6526 36.2039 -5.55112e-17
399 1 21.8743 168.584 -5.55112e-17
400 1 99.8014 9.41362 -5.55112e-17
401 1 10.9759 62.6713 -5.55112e-17
402 2 46.0218 65.5257 -5.55112e-17
403 1 157.263 76.5259 -5.55112e-17
404 1 63.077 16.8889 -5.55112e-17
405 1 205.269 142.703 -5.55112e-17
406 1 169.375 53.1811 -5.55112e-17
407 2 199.469 162.741 -5.55112e-17
408 1 130.403 172.326 -5.55112e-17
409 1 60.0885 10.2382 -5.55112e-17
410 1 74.5852 142.406 -5.55112e-17
411 1 182.157 145.913 -5.55112e-17
412 1 139.385 128.836 -5.55112e-17
413 1 100.417 6.71728 -5.55112e-17
414 1 87.138 132.571 -5.55112e-17
415 1 127.486 116.424 -5.55112e-17
416 1 208.644 160.12 -5.55112e-17
417 1 171.771 178.296 -5.55112e-17
418 2 148.148 19.158 -5.55112e-17
419 1 108.16 46.8927 -5.55112e-17
420 2 5.90645 99.286 -5.55112e-17
421 1 158.02 122.415 -5.55112e-17
422 1 40.1228 206.396 -5.55112e-17
423 2 198.775 96.4739 -5.55112e-17
424 1 135.121 99.0804 -5.55112e-17
425 1 188.522 85.8419 -5.55112e-17
426 1 8.2761 208.1 -5.55112e-17
427 1 58.7042 37.2774 -5.55112e-17
428 1 144.639 2.66268 -5.55112e-17
429 1 180.979 25.6794 -5.55112e-17
430 1 142.021 170.448 -5.55112e-17
431 1 201.278 7.72168 -5.55112e-17
432 1 154.241 3.64084 -5.55112e-17
433 1 212.333 166.641 -5.55112e-17
434 1 45.8765 158.54 -5.55112e-17
435 1 176.911 188.614 -5.55112e-17
436 1 212.11 95.48 -5.55112e-17
437 1 181.16 73.9979 -5.55112e-17
438 2 86.3393 75.4102 -5.55112e-17
439 1 57.3161 9.8338 -5.55112e-17
440 1 190.78 129.927 -5.55112e-17
441 1 171.072 147.709 -5.55112e-17
442 1 7.56204 46.8948 -5.55112e-17
443 1 124.613 131.592 -5.55112e-17
444 1 35.7755 74.4439 -5.55112e-17
445 1 123.827 207.989 -5.55112e-17
446 1 103.886 103.819 -5.55112e-17
447 1 3.97719 60.2341 -5.55112e-17
448 1 207.768 215.563 -5.55112e-17
449 1 77.0218 82.2655 -5.55112e-17
450 1 65.6107 93.671 -5.55112e-17
451 1 89.3052 51.2145 -5.55112e-17
452 1 133.125 138.027 -5.55112e-17
453 1 133.44 198.347 -5.55112e-17
454 1 41.2376 111.742 -5.55112e-17
455 1 125.4 98.4981 -5.55112e-17
456 1 139.55 114.83 -5.55112e-17
457 1 203.969 88.3658 -5.55112e-17
458 1 105.577 180.478 -5.55112e-17
459 1 10.474 194.491 -5.55112e-17
460 1 39.8993 92.3465 -5.55112e-17
461 1 54.8057 218.448 -5.55112e-17
462 1 87.692 11.8826 -5.55112e-17
463 1 69.2891 162.293 -5.55112e-17
464 1 145.442 139.304 -5.55112e-17
465 1 147.93 154.246 -5.55112e-17
466 1 211.03 11.3689 -5.55112e-17
467 1 173.357 101.654 -5.55112e-17
468 1 28.995 155.781 -5.55112e-17
469 1 189.607 36.9739 -5.55112e-17
470 1 218.681 82.7224 -5.55112e-17
471 1 182.37 160.698 -5.55112e-17
472 1 120.163 119.478 -5.55112e-17
473 1 195.188 161.732 -5.55112e-17
474 1 179.9 33.9623 -5.55112e-17
475 1 86.4938 198.208 -5.55112e-17
476 2 1.49681 14.492 -5.55112e-17
477 1 215.139 198.582 -5.55112e-17
478 1 161.655 97.6284 -5.55112e-17
479 1 157.109 208.53 -5.55112e-17
480 1 100.991 176.594 -5.55112e-17
481 1 218.667 107.209 -5.55112e-17
482 1 50.9734 7.33758 -5.55112e-17
483 1 61.0143 188.199 -5.55112e-17
484 2 198.277 111.553 -5.55112e-17
485 1 188.327 195.925 -5.55112e-17
486 1 80.0366 195.539 -5.55112e-17
487 1 215.579 149.947 -5.55112e-17
488 1 66.6886 25.6425 -5.55112e-17
489 1 214.162 194.533 -5.55112e-17
490 1 192.257 50.4443 -5.55112e-17
491 1 117.056 47.8686 -5.55112e-17
492 1 187.063 160.517 -5.55112e-17
493 1 137.231 194.194 -5.55112e-17
494 1 143.771 119.934 -5.55112e-17
495 1 8.55698 112.328 -5.55112e-17
496 2 22.9993 82.4847 -5.55112e-17
497 1 162.134 81.2663 -5.55112e-17
498 1 210.388 144.828 -5.55112e-17
499 2 109.4 104.725 -5.55112e-17
500 1 86.2008 119.851 -5.55112e-17
501 2 16.4083 192.971 -5.55112e-17
502 2 83.2323 194.384 -5.55112e-17
503 1 88.4417 115.785 -5.55112e-17
504 1 144.445 81.7183 -5.55112e-17
505 1 195.559 149.298 -5.55112e-17
506 1 197.791 160.435 -5.55112e-17
507 1 196.543 175.028 -5.55112e-17
508 1 29.2112 106.195 -5.55112e-17
509 2 76.2237 168 -5.55112e-17
510 2 161.536 106.22 -5.55112e-17
511 1 27.9866 24.2769 -5.55112e-17
512 2 104.751 172.766 -5.55112e-17
513 1 132.611 21.7607 -5.55112e-17
514 1 15.0878 120.18 -5.55112e-17
515 1 72.8408 50.024 -5.55112e-17
516 1 8.95728 155.587 -5.55112e-17
517 1 181.578 173.524 -5.55112e-17
518 2 143.699 114.458 -5.55112e-17
519 1 31.913 164.566 -5.55112e-17
520 2 207.285 95.7365 -5.55112e-17
521 1 185.48 31.8433 -5.55112e-17
522 1 79.8765 179.53 -5.55112e-17
523 1 94.8431 164.642 -5.55112e-17
524 1 17.2665 90.3797 -5.55112e-17
525 1 119.128 19.8664 -5.55112e-17
526 1 186.213 29.6643 -5.55112e-17
527 1 107.583 38.9409 -5.55112e-17
528 1 12.7735 54.952 -5.55112e-17
529 1 15.9569 160.383 -5.55112e-17
530 1 109.575 156.236 -5.55112e-17
531 1 2.29803 156.092 -5.55112e-17
532 1 41.5895 165.445 -5.55112e-17
533 1 80.3057 38.4529 -5.55112e-17
534 1 206.008 20.7721 -5.55112e-17
535 1 126.109 166.658 -5.55112e-17
536 1 105.729 80.3668 -5.55112e-17
537 1 75.184 214.66 -5.55112e-17
538 1 15.1319 79.4406 -5.55112e-17
539 1 55.5392 30.3847 -5.55112e-17
540 1 8.75754 117.093 -5.55112e-17
541 1 2.22476 33.5853 -5.55112e-17
542 1 111.798 212.113 -5.55112e-17
543 1 63.885 95.5143 -5.55112e-17
544 1 200.027 191.556 -5.55112e-17
545 1 176.252 82.8314 -5.55112e-17
546 1 188.523 216.458 -5.55112e-17
547 1 58.4892 15.5818 -5.55112e-17
548 1 32.0669 32.9519 -5.55112e-17
549 1 95.6485 72.2682 -5.55112e-17
550 2 169.844 25.9337 -5.55112e-17
551 2 167.153 1.45525 -5.55112e-17
552 2 159.948 143.845 -5.55112e-17
553 1 59.7452 161.911 -5.55112e-17
554 1 65.1805 101.8 -5.55112e-17
555 2 100.012 128.942 -5.55112e-17
556 1 151.871 209.269 -5.55112e-17
557 1 104.736 163.066 -5.55112e-17
558 1 16.8943 179.947 -5.55112e-17
559 1 31.3605 104.157 -5.55112e-17
560 1 141.283 16.4227 -5.55112e-17
561 1 190.099 168.606 -5.55112e-17
562 1 114.669 197.427 -5.55112e-17
563 2 185.834 165.045 -5.55112e-17
564 1 216.627 209.904 -5.55112e-17
565 1 140.757 48.429 -5.55112e-17
566 1 96.8142 60.3657 -5.55112e-17
567 1 86.5439 38.5646 -5.55112e-17
568 1 177.088 54.0491 -5.55112e-17
569 1 59.9165 153.984 -5.55112e-17
570 1 209.031 60.3559 -5.55112e-17
571 1 107.564 78.3491 -5.55112e-17
572 1 184.281 71.3622 -5.55112e-17
573 1 111.687 26.2103 -5.55112e-17
574 1 126.878 107.038 -5.55112e-17
575 1 27.7882 27.1563 -5.55112e-17
576 1 116.32 147.62 -5.55112e-17
577 1 67.5017 102.983 -5.55112e-17
578 1 167.85 51.144 -5.55112e-17
579 1 93.0219 54.6138 -5.55112e-17
580 1 210.086 18.8935 -5.55112e-17
581 1 76.8331 210.165 -5.55112e-17
582 1 11.0625 43.8622 -5.55112e-17
583 1 121.369 197.354 -5.55112e-17
584 2 34.2657 104.89 -5.55112e-17
585 1 133.149 38.0026 -5.55112e-17
586 1 151.205 37.2608 -5.55112e-17
587 1 170.584 150.953 -5.55112e-17
588 1 218.922 38.0018 -5.55112e-17
589 1 193.276 52.8724 -5.55112e-17
590 1 98.8949 184.9 -5.55112e-17
591 1 95.1382 187.705 -5.55112e-17
592 1 125.104 59.9873 -5.55112e-17
593 1 94.3392 59.2955 -5.55112e-17
594 1 134.387 51.1486 -5.55112e-17
595 1 27.1559 151.195 -5.55112e-17
596 1 114.673 14.3998 -5.55112e-17
597 2 62.4445 102.751 -5.55112e-17
598 1 57.587 160.815 -5.55112e-17
599 1 211.587 204.088 -5.55112e-17
600 1 144.9 190.443 -5.55112e-17
601 1 3.84568 112.95 -5.55112e-17
602 1 20.5612 96.6291 -5.55112e-17
603 1 132.984 126.234 -5.55112e-17
604 1 208.26 31.5392 -5.55112e-17
605 2 13.962 31.1761 -5.55112e-17
606 1 96.4533 80.3018 -5.55112e-17
607 2 26.553 190.191 -5.55112e-17
608 1 211.26 81.9927 -5.55112e-17
609 1 29.2038 164.875 -5.55112e-17
610 1 124.184 79.0257 -5.55112e-17
611 1 32.39 205.092 -5.55112e-17
612 1 40.1455 74.0775 -5.55112e-17
613 1 44.881 71.5089 -5.55112e-17
614 2 101.048 187.202 -5.55112e-17
615 1 89.3951 152.941 -5.55112e-17
616 1 6.09307 114.6 -5.55112e-17
617 1 205.906 11.487 -5.55112e-17
618 1 216.936 167.434 -5.55112e-17
619 1 86.5806 29.2464 -5.55112e-17
620 1 144.654 61.45 -5.55112e-17
621 1 142.058 50.6991 -5.55112e-17
622 1 185.049 4.56024 -5.55112e-17
623 1 35.8513 77.0127 -5.55112e-17
624 1 185.172 185.193 -5.55112e-17
625 1 39.4259 179.034 -5.55112e-17
626 1 178.344 26.4951 -5.55112e-17
627 1 165.38 139.726 -5.55112e-17
628 1 6.4804 82.2223 -5.55112e-17
629 1 119.727 144.123 -5.55112e-17
630 2 99.7502 83.8261 -5.55112e-17
631 1 190.257 209.971 -5.55112e-17
632 1 3.91943 107.85 -5.55112e-17
633 1 189.215 193.381 -5.55112e-17
634 1 176.436 90.2469 -5.55112e-17
635 1 201.198 85.7693 -5.55112e-17
636 1 71.5225 30.6837 -5.55112e-17
637 1 15.9161 107.878 -5.55112e-17
638 1 35.1523 176.65 -5.55112e-17
639 2 102.295 51.9454 -5.55112e-17
640 1 4.31193 96.2798 -5.55112e-17
641 1 196.087 39.2405 -5.55112e-17
642 1 134.037 84.0315 -5.55112e-17
643 2 47.0688 114.033 -5.55112e-17
644 1 158.912 15.2153 -5.55112e-17
645 1 172.127 43.929 -5.55112e-17
646 2 87.0897 180.098 -5.55112e-17
647 1 114.331 200.052 -5.55112e-17
648 1 198.881 66.6071 -5.55112e-17
649 2 182.142 208.171 -5.55112e-17
650 1 83.7462 25.1997 -5.55112e-17
651 1 30.1502 87.0006 -5.55112e-17
652 1 161.936 155.963 -5.55112e-17
653 1 139.734 67.5163 -5.55112e-17
654 1 43.2926 100.147 -5.55112e-17
655 2 147.548 22.9494 -5.55112e-17
656 1 20.4561 69.2561 -5.55112e-17
657 2 145.497 54.7801 -5.55112e-17
658 1 109.471 126.388 -5.55112e-17
659 2 9.83262 0.298965 -5.55112e-17
660 1 164.309 1.27647 -5.55112e-17
661 1 3.97315 131.642 -5.55112e-17
662 1 187.293 202.787 -5.55112e-17
663 1 132.775 88.9993 -5.55112e-17
664 1 54.3547 164.307 -5.55112e-17
665 1 58.5898 174.215 -5.55112e-17
666 2 115.861 127.079 -5.55112e-17
667 1 70.0538 40.7693 -5.55112e-17
668 2 154.852 68.0459 -5.55112e-17
669 1 56.1723 27.8776 -5.55112e-17
670 1 3.68982 89.3799 -5.55112e-17
671 2 140.72 9.52182 -5.55112e-17
672 1 218.989 35.3802 -5.55112e-17
673 1 161.17 163.816 -5.55112e-17
674 1 92.3447 162.906 -5.55112e-17
675 1 178.139 200.357 -5.55112e-17
676 1 171.494 198.092 -5.55112e-17
677 1 204.614 205.989 -5.55112e-17
678 1 120.648 30.2842 -5.55112e-17
679 2 109.303 150.365 -5.55112e-17
680 1 54.6245 109.04 -5.55112e-17
681 2 38.568 209.371 -5.55112e-17
682 1 52.6233 145.673 -5.55112e-17
683 1 110.075 216.502 -5.55112e-17
684 1 201.499 35.6469 -5.55112e-17
685 1 2.24159 124.363 -5.55112e-17
686 1 210.532 13.7022 -5.55112e-17
687 1 27.0272 166.131 -5.55112e-17
688 1 42.141 201.947 -5.55112e-17
689 2 50.3947 66.9538 -5.55112e-17
690 1 135.081 170.951 -5.55112e-17
691 1 144.338 180.808 -5.55112e-17
692 1 133.796 63.0156 -5.55112e-17
693 1 66.3366 179.606 -5.55112e-17
694 1 14.6755 150.458 -5.55112e-17
695 1 31.1396 213.879 -5.55112e-17
696 1 167.959 159.33 -5.55112e-17
697 1 163.009 16.331 -5.55112e-17
698 1 215.513 120.511 -5.55112e-17
699 1 151.124 19.0031 -5.55112e-17
700 1 6.33499 159.356 -5.55112e-17
701 1 42.0003 7.42097 -5.55112e-17
702 1 120.006 44.3917 -5.55112e-17
703 2 106.062 66.8085 -5.55112e-17
704 1 118.81 168.133 -5.55112e-17
705 2 130.262 30.9344 -5.55112e-17
706 1 140.147 78.4758 -5.55112e-17
707 1 105.862 144.328 -5.55112e-17
708 1 46.7882 180.333 -5.55112e-17
709 1 48.7065 60.3889 -5.55112e-17
710 1 167.978 175.676 -5.55112e-17
711 1 56.4858 197.463 -5.55112e-17
712 1 121.379 6.63725 -5.55112e-17
713 1 93.7573 168.797 -5.55112e-17
714 1 13.7501 77.4343 -5.55112e-17
715 1 61.8884 8.64459 -5.55112e-17
716 1 216.676 34.1782 -5.55112e-17
717 1 206.431 78.3994 -5.55112e-17
718 1 194.595 75.6678 -5.55112e-17
719 2 176.362 51.2963 -5.55112e-17
720 1 107.152 91.1058 -5.55112e-17
721 1 152.321 115.237 -5.55112e-17
722 1 44.6842 90.8487 -5.55112e-17
723 2 9.84709 124.82 -5.55112e-17
724 1 138.232 80.2105 -5.55112e-17
725 1 174.233 178.463 -5.55112e-17
726 1 24.6199 49.4663 -5.55112e-17
727 1 131.486 2.37213 -5.55112e-17
728 2 23.3246 15.8058 -5.55112e-17
729 1 42.9872 109.762 -5.55112e-17
730 1 178.374 148.8 -5.55112e-17
731 1 69.7879 144.15 -5.55112e-17
732 1 128.412 111.233 -5.55112e-17
733 1 18.4097 34.8938 -5.55112e-17
734 1 100.128 39.1414 -5.55112e-17
735 1 196.066 179.454 -5.55112e-17
736 2 71.3086 174.601 -5.55112e-17
737 1 64.2952 200.865 -5.55112e-17
738 1 168.969 190.4 -5.55112e-17
739 1 149.623 189.599 -5.55112e-17
740 1 216.174 60.8271 -5.55112e-17
741 2 82.6252 68.6902 -5.55112e-17
742 1 32.7214 195.693 -5.55112e-17
743 1 44.7348 207.964 -5.55112e-17
744 2 98.0229 67.4183 -5.55112e-17
745 1 155.348 165.348 -5.55112e-17
746 1 78.9873 152.428 -5.55112e-17
747 2 85.161 70.6685 -5.55112e-17
748 1 135.638 199.91 -5.55112e-17
749 1 86.1362 145.854 -5.55112e-17
750 1 29.4969 178.36 -5.55112e-17
751 1 150.334 199.558 -5.55112e-17
752 1 64.6152 198.051 -5.55112e-17
753 1 46.0187 60.5912 -5.55112e-17
754 1 214.068 203.777 -5.55112e-17
755 1 30.9483 203.092 -5.55112e-17
756 2 190.231 179.098 -5.55112e-17
757 1 26.0838 185.563 -5.55112e-17
758 1 84.3498 157.061 -5.55112e-17
759 1 158.767 159.588 -5.55112e-17
760 1 215.817 72.8793 -5.55112e-17
761 1 161.593 5.00432 -5.55112e-17
762 1 64.4563 26.8952 -5.55112e-17
763 1 26.4569 97.662 -5.55112e-17
764 2 43.6512 187.657 -5.55112e-17
765 1 169.59 173.525 -5.55112e-17
766 1 56.4868 25.1073 -5.55112e-17
767 1 91.4906 205.034 -5.55112e-17
768 1 160.654 111.136 -5.55112e-17
769 1 188.793 165.819 -5.55112e-17
770 2 77.7812 200.49 -5.55112e-17
771 1 34.3233 133.17 -5.55112e-17
772 1 64.0189 81.2472 -5.55112e-17
773 1 47.7799 215.261 -5.55112e-17
774 1 130.216 145.023 -5.55112e-17
775 1 59.3077 88.6681 -5.55112e-17
776 1 167.585 95.5313 -5.55112e-17
777 1 153.255 73.278 -5.55112e-17
778 1 59.9012 119.494 -5.55112e-17
779 1 36.7485 132.106 -5.55112e-17
780 1 185.376 170.217 -5.55112e-17
781 1 198.604 137.935 -5.55112e-17
782 1 35.6303 101.713 -5.55112e-17
783 1 201.098 112.579 -5.55112e-17
784 2 187.781 44.6064 -5.55112e-17
785 1 112.073 21.3371 -5.55112e-17
786 1 61.8089 149.556 -5.55112e-17
787 1 168.398 46.4774 -5.55112e-17
788 1 191.945 8.08307 -5.55112e-17
789 2 208.992 202.771 -5.55112e-17
790 1 160.874 128.689 -5.55112e-17
791 2 16.6469 10.5903 -5.55112e-17
792 2 85.9503 114.033 -5.55112e-17
793 2 74.9693 179.41 -5.55112e-17
794 1 98.9772 189.344 -5.55112e-17
795 1 38.1772 172.723 -5.55112e-17
796 1 94.7118 11.7745 -5.55112e-17
797 1 62.1312 163.059 -5.55112e-17
798 2 29.8535 139.681 -5.55112e-17
799 2 153.506 24.9256 -5.55112e-17
800 2 201.902 27.5899 -5.55112e-17
801 1 45.5781 55.8217 -5.55112e-17
802 1 104.207 49.6632 -5.55112e-17
803 1 97.281 10.5624 -5.55112e-17
804 2 146.232 32.5036 -5.55112e-17
805 1 150.824 154.153 -5.55112e-17
806 1 23.955 173.281 -5.55112e-17
807 2 209.162 36.1114 -5.55112e-17
808 1 126.493 149.456 -5.55112e-17
809 2 204.773 168.559 -5.55112e-17
810 1 109.996 77.9391 -5.55112e-17
811 1 115.052 189.469 -5.55112e-17
812 1 160.594 173.027 -5.55112e-17
813 2 186.777 73.3347 -5.55112e-17
814 1 72.1242 114.803 -5.55112e-17
815 1 143.789 16.4792 -5.55112e-17
816 1 99.5185 14.2854 -5.55112e-17
817 1 24.8431 89.9345 -5.55112e-17
818 1 192.636 65.8169 -5.55112e-17
819 1 23.3404 179.4 -5.55112e-17
820 1 65.0183 203.243 -5.55112e-17
821 1 73.0613 26.5808 -5.55112e-17
822 2 162.602 40.3871 -5.55112e-17
823 2 136.015 44.7303 -5.55112e-17
824 1 70.8087 25.2167 -5.55112e-17
825 1 95.0112 197.64 -5.55112e-17
826 1 176.189 73.0443 -5.55112e-17
827 1 70.7955 22.474 -5.55112e-17
828 1 179.328 198.29 -5.55112e-17
829 1 167.364 69.2631 -5.55112e-17
830 1 44.469 168.884 -5.55112e-17
831 1 216.471 123.053 -5.55112e-17
832 1 83.015 113.143 -5.55112e-17
833 1 105.464 59.6486 -5.55112e-17
834 1 9.54562 88.8792 -5.55112e-17
835 1 26.4322 20.0608 -5.55112e-17
836 1 39.3326 138.046 -5.55112e-17
837 1 77.3131 135.497 -5.55112e-17
838 1 29.2376 63.6442 -5.55112e-17
839 2 10.5314 35.3824 -5.55112e-17
840 1 200.08 37.5327 -5.55112e-17
841 2 96.6069 157.002 -5.55112e-17
842 1 66.3839 56.6403 -5.55112e-17
843 2 102.726 71.2246 -5.55112e-17
844 1 43.0266 146.756 -5.55112e-17
845 1 17.9211 55.4904 -5.55112e-17
846 1 81.4415 131.199 -5.55112e-17
847 1 116.266 60.3087 -5.55112e-17
848 1 186.63 214.064 -5.55112e-17
849 1 171.94 15.4399 -5.55112e-17
850 1 81.7791 40.8062 -5.55112e-17
851 1 200.217 177.577 -5.55112e-17
852 1 124.752 141.228 -5.55112e-17
853 1 126.023 156.827 -5.55112e-17
854 1 128.497 76.4018 -5.55112e-17
855 1 13.9083 92.168 -5.55112e-17
856 1 153.421 119.4 -5.55112e-17