ITEM: TIMESTEP
0
ITEM: NUMBER OF ATOMS
7200
ITEM: BOX BOUNDS xy xz yz pp pp pp
0.0000000000000000e+00 2.1900000000000000e+02 0.0000000000000000e+00
0.0000000000000000e+00 2.1900000000000000e+02 0.0000000000000000e+00
-3.6499999999999999e-01 3.6499999999999999e-01 0.0000000000000000e+00
ITEM: ATOMS id type x y z
1 1 3.00143 174.939 -5.55112e-17
2 1 185.749 206.538 -5.55112e-17
3 1 32.4491 13.5657 -5.55112e-17
4 1 217.409 173.547 -5.55112e-17
5 1 107.289 105.51 -5.55112e-17
6 1 37.9262 142.361 -5.55112e-17
7 1 127.254 118.351 -5.55112e-17
8 2 90.2858 58.7751 -5.55112e-17
9 1 170.411 21.9667 -5.55112e-17
10 2 143.903 105.7 -5.55112e-17
11 1 41.1269 30.3241 -5.55112e-17
12 1 212.338 35.7464 -5.55112e-17
13 2 198.693 95.9185 -5.55112e-17
14 1 216.646 98.8775 -5.55112e-17
15 1 60.2966 42.1707 -5.55112e-17
16 2 83.753 202.125 -5.55112e-17
17 1 92.4002 136.795 -5.55112e-17
18 2 164.553 97.618 -5.55112e-17
19 1 207.058 60.1067 -5.55112e-17
20 1 99.5514 175.41 -5.55112e-17
21 1 32.7465 205.938 -5.55112e-17
22 2 41.8867 156.714 -5.55112e-17
23 2 50.584 39.6166 -5.55112e-17
24 1 56.0515 140.767 -5.55112e-17
25 1 191.732 114.375 -5.55112e-17
26 2 216.089 163.077 -5.55112e-17
27 1 77.6265 139.384 -5.55112e-17
28 2 126.452 106.647 -5.55112e-17
29 1 71.4416 72.8639 -5.55112e-17
30 1 117.614 179.221 -5.55112e-17
31 1 59.0866 11.5202 -5.55112e-17
32 1 131.401 149.969 -5.55112e-17
33 1 24.9025 14.8649 -5.55112e-17
34 1 149.011 63.3416 -5.55112e-17
35 1 132.547 13.195 -5.55112e-17
36 1 160.825 187.56 -5.55112e-17
37 2 202.373 73.6454 -5.55112e-17
38 1 41.4108 116.175 -5.55112e-17
39 1 169.129 132.287 -5.55112e-17
40 1 152.36 134.159 -5.55112e-17
41 1 48.9234 86.9834 -5.55112e-17
42 1 80.5432 39.1089 -5.55112e-17
43 1 6.95378 17.5565 -5.55112e-17
44 1 100.682 179.826 -5.55112e-17
45 1 75.4627 120.955 -5.55112e-17
46 1 16.6635 20.5937 -5.55112e-17
47 1 56.7754 74.8284 -5.55112e-17
48 2 38.8267 216.801 -5.55112e-17
49 1 105.57 6.26612 -5.55112e-17
50 1 167.238 78.728 -5.55112e-17
51 1 144.396 66.114 -5.55112e-17
52 1 88.2303 24.0442 -5.55112e-17
53 1 144.477 0.515082 -5.55112e-17
54 1 89.0704 131.272 -5.55112e-17
55 1 67.2446 60.4849 -5.55112e-17
56 1 129.495 161.615 -5.55112e-17
57 2 197.468 122.256 -5.55112e-17
58 1 164.419 157.423 -5.55112e-17
59 1 121.328 198.391 -5.55112e-17
60 2 203.538 83.9323 -5.55112e-17
61 2 163.23 16.2669 -5.55112e-17
62 1 24.9437 161.59 -5.55112e-17
63 1 129.932 186.964 -5.55112e-17
64 1 99.9057 93.8328 -5.55112e-17
65 1 27.3051 54.153 -5.55112e-17
66 1 78.157 119.319 -5.55112e-17
67 1 201.374 104.941 -5.55112e-17
68 1 176.074 30.2474 -5.55112e-17
69 1 36.1807 25.2536 -5.55112e-17
70 1 200.654 30.9847 -5.55112e-17
71 1 60.9216 50.8294 -5.55112e-17
72 1 150.888 74.1578 -5.55112e-17
73 1 148.651 199.137 -5.55112e-17
74 1 193.012 157.69 -5.55112e-17
75 2 176.632 11.4771 -5.55112e-17
76 1 67.8707 79.7732 -5.55112e-17
77 1 55.3216 15.4283 -5.55112e-17
78 1 25.6343 46.7467 -5.55112e-17
79 2 51.1522 79.9351 -5.55112e-17
80 1 95.5787 119.312 -5.55112e-17
81 1 83.4275 145.509 -5.55112e-17
82 1 215.154 177.594 -5.55112e-17
83 2 14.6998 110.005 -5.55112e-17
84 1 71.7016 95.4113 -5.55112e-17
85 1 45.7446 72.3235 -5.55112e-17
86 1 154.527 116.947 -5.55112e-17
87 1 22.9753 47.5281 -5.55112e-17
88 1 27.9442 161.79 -5.55112e-17
89 2 133.831 136.587 -5.55112e-17
90 2 214.625 200.551 -5.55112e-17
91 1 188.591 210.469 -5.55112e-17
92 2 10.0501 18.593 -5.55112e-17
93 1 18.3999 88.3445 -5.55112e-17
94 2 132.342 190.986 -5.55112e-17
95 1 124.734 216.56 -5.55112e-17
96 1 70.2936 54.2213 -5.55112e-17
97 1 94.6476 30.5308 -5.55112e-17
98 1 117.102 86.6261 -5.55112e-17
99 1 213.676 144.188 -5.55112e-17
100 1 191.463 217.755 -5.55112e-17
101 1 150.181 115.911 -5.55112e-17
102 1 184.062 44.3017 -5.55112e-17
103 1 41.9874 118.592 -5.55112e-17
104 1 214.165 55.3158 -5.55112e-17
105 1 77.7814 146.421 -5.55112e-17
106 1 145.07 60.3289 -5.55112e-17
107 2 211.539 16.5848 -5.55112e-17
108 1 104.99 111.006 -5.55112e-17
109 1 135.901 98.7369 -5.55112e-17
110 1 73.9187 96.2235 -5.55112e-17
111 1 24.9534 91.1839 -5.55112e-17
112 1 173.919 181.593 -5.55112e-17
113 1 11.0935 45.7265 -5.55112e-17
114 1 106.873 141.44 -5.55112e-17
115 1 119.623 30.0928 -5.55112e-17
116 2 29.8595 82.0467 -5.55112e-17
117 1 28.8084 137.124 -5.55112e-17
118 1 14.0461 65.101 -5.55112e-17
119 2 34.8832 184.169 -5.55112e-17
120 1 97.4173 51.1783 -5.55112e-17
121 1 161.893 127.565 -5.55112e-17
122 1 121.076 208.609 -5.55112e-17
123 1 33.1412 179.447 -5.55112e-17
124 1 134.376 47.2677 -5.55112e-17
125 1 117.532 18.3178 -5.55112e-17
126 1 87.8028 144.594 -5.55112e-17
127 1 49.4634 127.647 -5.55112e-17
128 1 84.2463 35.9993 -5.55112e-17
129 1 57.3143 216.255 -5.55112e-17
130 1 130.13 181.254 -5.55112e-17
131 1 8.82264 92.3221 -5.55112e-17
132 2 4.25215 199.221 -5.55112e-17
133 1 141.379 180.003 -5.55112e-17
134 1 158.071 72.5995 -5.55112e-17
135 1 78.9341 93.7584 -5.55112e-17
136 1 187.223 64.7331 -5.55112e-17
137 1 53.4031 71.6214 -5.55112e-17
138 1 178.66 83.9648 -5.55112e-17
139 1 3.49117 68.7228 -5.55112e-17
140 2 206.023 19.5099 -5.55112e-17
141 1 98.7846 90.3993 -5.55112e-17
142 2 130.235 116.861 -5.55112e-17
143 1 142.257 145.502 -5.55112e-17
144 2 21.8977 91.4689 -5.55112e-17
145 1 41.664 189.017 -5.55112e-17
146 1 0.962856 206.129 -5.55112e-17
147 1 128.177 6.49986 -5.55112e-17
148 1 59.4527 75.3841 -5.55112e-17
149 1 13.2939 44.5277 -5.55112e-17
150 1 61.921 48.685 -5.55112e-17
151 1 162.923 78.4006 -5.55112e-17
152 1 27.0314 151.71 -5.55112e-17
153 2 182.859 63.1742 -5.55112e-17
154 1 8.96942 58.3153 -5.55112e-17
155 1 202.981 211.956 -5.55112e-17
156 2 139.981 194.054 -5.55112e-17
157 1 105.936 164.35 -5.55112e-17
158 1 167.531 90.3094 -5.55112e-17
159 1 104.625 155.655 -5.55112e-17
160 1 90.8527 10.7089 -5.55112e-17
161 1 189.059 134.224 -5.55112e-17
162 1 167.799 23.1914 -5.55112e-17
163 1 138.917 19.9705 -5.55112e-17
164 1 125.699 165.516 -5.55112e-17
165 1 15.5302 51.4087 -5.55112e-17
166 2 33.5489 20.2947 -5.55112e-17
167 1 148.158 91.7105 -5.55112e-17
168 1 68.9819 58.6383 -5.55112e-17
169 1 15.8343 136.634 -5.55112e-17
170 1 189.888 147.336 -5.55112e-17
171 1 71.5867 38.6244 -5.55112e-17
172 1 147.427 116.208 -5.55112e-17
173 1 192.009 124.933 -5.55112e-17
174 1 120.785 190.895 -5.55112e-17
175 2 200.179 211.381 -5.55112e-17
176 1 0.499993 29.8808 -5.55112e-17
177 2 116.308 138.497 -5.55112e-17
178 1 1.01201 27.0263 -5.55112e-17
179 1 156.193 70.7285 -5.55112e-17
180 1 43.1621 28.8778 -5.55112e-17
181 1 57.5214 95.4969 -5.55112e-17
182 2 111.869 182.418 -5.55112e-17
183 1 200.865 137.836 -5.55112e-17
184 1 4.71048 218.272 -5.55112e-17
185 2 96.069 160.745 -5.55112e-17
186 2 188.214 111.545 -5.55112e-17
187 1 23.6168 61.4705 -5.55112e-17
188 1 181.586 4.07372 -5.55112e-17
189 1 145.967 70.3486 -5.55112e-17
190 2 34.6429 129.429 -5.55112e-17
191 1 53.024 84.0121 -5.55112e-17
192 2 156.689 55.6196 -5.55112e-17
193 2 142.308 191.67 -5.55112e-17
194 1 37.1613 139.113 -5.55112e-17
195 1 145.069 3.05725 -5.55112e-17
196 1 31.0179 198.443 -5.55112e-17
197 1 192.33 196.356 -5.55112e-17
198 2 199.195 159.07 -5.55112e-17
199 1 60.4643 39.5368 -5.55112e-17
200 1 58.0145 202.29 -5.55112e-17
201 2 93.2981 216.209 -5.55112e-17
202 1 127.598 188.603 -5.55112e-17
203 1 188.659 2.65433 -5.55112e-17
204 1 103.195 145.706 -5.55112e-17
205 2 35.7144 205.297 -5.55112e-17
206 1 124.949 129.934 -5.55112e-17
207 1 195.403 128.454 -5.55112e-17
208 1 80.6484 141 -5.55112e-17
209 1 218.395 119.102 -5.55112e-17
210 1 147.516 196.89 -5.55112e-17
211 2 32.4821 5.98622 -5.55112e-17
212 1 43.7728 42.3325 -5.55112e-17
213 1 64.8605 185.053 -5.55112e-17
214 1 0.109252 169.326 -5.55112e-17
215 1 159.797 84.7027 -5.55112e-17
216 1 187.637 80.3615 -5.55112e-17
217 1 111.955 31.5499 -5.55112e-17
218 2 122.453 211.823 -5.55112e-17
219 1 117.392 60.3475 -5.55112e-17
220 2 56.4022 92.7571 -5.55112e-17
221 1 178.498 169.541 -5.55112e-17
222 1 117.417 163.944 -5.55112e-17
223 1 133.683 1.67509 -5.55112e-17
224 2 145.268 110.238 -5.55112e-17
225 1 147.781 132.732 -5.55112e-17
226 1 90.6549 133.064 -5.55112e-17
227 2 139.532 78.0225 -5.55112e-17
228 1 11.6376 65.2322 -5.55112e-17
229 1 179.075 160.764 -5.55112e-17
230 1 48.5243 41.7622 -5.55112e-17
231 1 63.2452 96.3613 -5.55112e-17
232 1 202.81 209.414 -5.55112e-17
233 1 112.461 78.7355 -5.55112e-17
234 1 79.0925 22.0029 -5.55112e-17
235 1 143.661 43.0547 -5.55112e-17
236 1 137.949 128.602 -5.55112e-17
237 1 45.062 60.1688 -5.55112e-17
238 1 166.65 94.5089 -5.55112e-17
239 2 22.9179 94.2012 -5.55112e-17
240 1 147.645 214.094 -5.55112e-17
241 2 59.803 178.602 -5.55112e-17
242 2 176.906 65.7724 -5.55112e-17
243 2 43.8906 54.6242 -5.55112e-17
244 1 9.35382 81.7303 -5.55112e-17
245 1 23.7493 7.58155 -5.55112e-17
246 1 183.797 25.9261 -5.55112e-17
247 1 191.811 194.031 -5.55112e-17
248 1 82.99 24.7104 -5.55112e-17
249 1 97.7279 186.471 -5.55112e-17
250 2 64.1433 46.3863 -5.55112e-17
251 1 42.8032 147.871 -5.55112e-17
252 1 184.99 65.7579 -5.55112e-17
253 1 196.224 104.091 -5.55112e-17
254 2 136.327 126.195 -5.55112e-17
255 1 170.47 140.608 -5.55112e-17
256 1 11.4396 57.0612 -5.55112e-17
257 1 172.826 185.2 -5.55112e-17
258 2 88.9538 50.7471 -5.55112e-17
259 1 132.857 117.791 -5.55112e-17
260 1 93.6468 120.683 -5.55112e-17
261 1 171.262 208.902 -5.55112e-17
262 1 163.143 11.4104 -5.55112e-17
263 1 211.912 93.111 -5.55112e-17
264 1 96.7339 116.896 -5.55112e-17
265 1 86.9149 198.399 -5.55112e-17
266 1 166.261 58.8647 -5.55112e-17
267 1 173.555 57.7143 -5.55112e-17
268 1 66.7616 148.401 -5.55112e-17
269 1 150.672 161.529 -5.55112e-17
270 1 147.313 135.497 -5.55112e-17
271 1 76.0102 28.0294 -5.55112e-17
272 1 205.444 173.697 -5.55112e-17
273 1 18.6465 25.0948 -5.55112e-17
274 2 217.569 48.4983 -5.55112e-17
275 1 90.4225 27.7013 -5.55112e-17
276 2 86.8534 177.591 -5.55112e-17
277 2 157.763 117.427 -5.55112e-17
278 1 148.54 185.612 -5.55112e-17
279 2 25.5782 190.11 -5.55112e-17
280 1 206.957 53.5598 -5.55112e-17
281 1 50.0114 188.874 -5.55112e-17
282 1 190.693 149.814 -5.55112e-17
283 1 107.165 59.341 -5.55112e-17
284 1 206.112 35.5413 -5.55112e-17
285 1 4.78441 185.85 -5.55112e-17
286 2 15.8806 145.036 -5.55112e-17
287 1 4.61899 159.191 -5.55112e-17
288 1 212.311 201.99 -5.55112e-17
289 1 211.261 28.2157 -5.55112e-17
290 1 109.019 132.201 -5.55112e-17
291 1 199.705 140.256 -5.55112e-17
292 2 192.32 36.9333 -5.55112e-17
293 2 72.6229 69.5636 -5.55112e-17
294 1 53.4719 191.137 -5.55112e-17
295 1 96.1267 10.3661 -5.55112e-17
296 1 199.622 107.351 -5.55112e-17
297 1 30.1487 209.863 -5.55112e-17
298 1 68.4029 11.9985 -5.55112e-17
299 1 46.4722 43.4494 -5.55112e-17
300 2 152.309 164.079 -5.55112e-17
301 1 47.2767 50.974 -5.55112e-17
302 1 17.8721 52.6589 -5.55112e-17
303 2 122.21 41.9598 -5.55112e-17
304 2 112.556 54.2578 -5.55112e-17
305 1 77.6665 33.2545 -5.55112e-17
306 1 6.88731 37.4943 -5.55112e-17
307 1 2.79294 187.327 -5.55112e-17
308 1 202.022 91.4219 -5.55112e-17
309 2 33.1285 68.5932 -5.55112e-17
310 1 174.362 161.235 -5.55112e-17
311 1 19.6875 105.082 -5.55112e-17
312 1 83.8575 97.1585 -5.55112e-17
313 2 153.638 31.1068 -5.55112e-17
314 1 69.5914 186.55 -5.55112e-17
315 1 151.862 191.397 -5.55112e-17
316 1 173.737 85.6313 -5.55112e-17
317 1 56.31 187.786 -5.55112e-17
318 1 106.535 112.988 -5.55112e-17
319 1 152.018 194.156 -5.55112e-17
320 1 193.348 22.8626 -5.55112e-17
321 1 196.165 160.173 -5.55112e-17
322 1 29.8423 215.23 -5.55112e-17
323 1 170.663 34.9275 -5.55112e-17
324 1 208.932 140.635 -5.55112e-17
325 1 34.7082 98.9158 -5.55112e-17
326 1 205.477 0.42941 -5.55112e-17
327 2 65.8718 188.067 -5.55112e-17
328 1 193.199 213.166 -5.55112e-17
329 2 112.22 125.13 -5.55112e-17
330 1 110.792 177.051 -5.55112e-17
331 1 156.632 31.326 -5.55112e-17
332 2 204.293 24.4124 -5.55112e-17
333 1 174.123 60.2542 -5.55112e-17
334 1 80.2343 104.036 -5.55112e-17
335 1 206.665 166.112 -5.55112e-17
336 1 213.8 116.349 -5.55112e-17
337 1 211.367 160.032 -5.55112e-17
338 1 66.0709 205.003 -5.55112e-17
339 1 139.945 38.7003 -5.55112e-17
340 1 217.104 86.3674 -5.55112e-17
341 1 178.015 91.2121 -5.55112e-17
342 1 188.222 207.672 -5.55112e-17
343 1 18.953 196.754 -5.55112e-17
344 1 147.88 120.239 -5.55112e-17
345 1 189.945 195.646 -5.55112e-17
346 1 123.355 191.796 -5.55112e-17
347 1 124.031 3.51698 -5.55112e-17
348 1 122.593 44.872 -5.55112e-17
349 1 206.501 65.0696 -5.55112e-17
350 2 78.4257 152.453 -5.55112e-17
351 1 101.242 129.833 -5.55112e-17
352 1 103.329 4.4361 -5.55112e-17
353 1 196.673 142.905 -5.55112e-17
354 1 92.2764 200.916 -5.55112e-17
355 1 53.8082 160.966 -5.55112e-17
356 1 186.094 30.4408 -5.55112e-17
357 1 158.177 217.418 -5.55112e-17
358 1 162.055 56.5592 -5.55112e-17
359 1 105.459 73.6727 -5.55112e-17
360 1 202.652 98.5008 -5.55112e-17
361 1 4.74189 35.4359 -5.55112e-17
362 1 53.4214 134.324 -5.55112e-17
363 1 209.541 26.2144 -5.55112e-17
364 2 68.5766 193.61 -5.55112e-17
365 1 178.896 209.814 -5.55112e-17
366 1 58.1338 38.3356 -5.55112e-17
367 1 4.73303 110.386 -5.55112e-17
368 1 109.065 112.634 -5.55112e-17
369 2 187.23 53.0959 -5.55112e-17
370 1 58.9216 166.221 -5.55112e-17
371 1 120.731 97.7547 -5.55112e-17
372 2 104.96 197.478 -5.55112e-17
373 2 40.4102 132.252 -5.55112e-17
374 1 7.36152 34.6471 -5.55112e-17
375 1 85.1259 155.998 -5.55112e-17
376 1 35.4748 124.279 -5.55112e-17
377 1 64.9787 130.738 -5.55112e-17
378 1 134.227 68.1853 -5.55112e-17
379 1 85.7422 148.888 -5.55112e-17
380 1 16.8005 169.857 -5.55112e-17
381 1 104.178 194.168 -5.55112e-17
382 1 171.592 177.772 -5.55112e-17
383 1 123.699 199.309 -5.55112e-17
384 1 101.614 98.9485 -5.55112e-17
385 1 202.899 110.117 -5.55112e-17
386 2 50.5042 213.012 -5.55112e-17
387 1 215.015 7.80665 -5.55112e-17
388 1 172.261 55.5814 -5.55112e-17
389 1 36.8524 65.0715 -5.55112e-17
390 2 71.4748 153.847 -5.55112e-17
391 2 105.366 92.179 -5.55112e-17
392 1 202.311 32.6912 -5.55112e-17
393 1 171.347 155.044 -5.55112e-17
394 1 19.381 12.0251 -5.55112e-17
395 1 141.913 196.685 -5.55112e-17
396 1 6.13076 62.0628 -5.55112e-17
397 1 62.5982 142.896 -5.55112e-17
398 1 136.947 68.7846 -5.55112e-17
399 1 218.661 148.11 -5.55112e-17
400 1 176.984 131.978 -5.55112e-17
401 1 9.16332 121.335 -5.55112e-17
402 2 13.3963 195.374 -5.55112e-17
403 1 135.969 211.176 -5.55112e-17
404 1 146.633 118.537 -5.55112e-17
405 1 156.261 188.544 -5.55112e-17
406 1 98.5411 181.267 -5.55112e-17
407 2 75.7817 182.395 -5.55112e-17
408 1 102.505 218.872 -5.55112e-17
409 1 30.1113 99.2626 -5.55112e-17
410 1 89.3739 196.717 -5.55112e-17
411 1 104.894 150.658 -5.55112e-17
412 1 165.18 79.6984 -5.55112e-17
413 1 127.316 115.844 -5.55112e-17
414 1 154.519 152.425 -5.55112e-17
415 1 13.1435 67.4031 -5.55112e-17
416 1 13.7645 147.619 -5.55112e-17
417 1 114.539 80.5655 -5.55112e-17
418 2 188.676 151.988 -5.55112e-17
419 1 59.1789 94.0175 -5.55112e-17
420 2 56.4406 100.905 -5.55112e-17
421 1 176.122 151.05 -5.55112e-17
422 1 181.64 203.836 -5.55112e-17
423 2 93.1624 89.9394 -5.55112e-17
424 1 117.922 7.75814 -5.55112e-17
425 1 160.65 110.309 -5.55112e-17
426 1 164.545 65.2047 -5.55112e-17
427 1 181.386 129.304 -5.55112e-17
428 1 210.285 209.39 -5.55112e-17
429 1 112.952 44.0767 -5.55112e-17
430 1 176.901 162.292 -5.55112e-17
431 1 171.891 163.044 -5.55112e-17
432 1 145.216 177.697 -5.55112e-17
433 1 81.0469 85.3843 -5.55112e-17
434 1 207.465 145.946 -5.55112e-17
435 1 43.5993 145.416 -5.55112e-17
436 1 41.9534 161.667 -5.55112e-17
437 1 1.30425 162.752 -5.55112e-17
438 2 54.365 81.463 -5.55112e-17
439 1 159.526 96.7642 -5.55112e-17
440 1 64.1205 218.967 -5.55112e-17
441 1 48.9708 184.125 -5.55112e-17
442 1 108.153 208.039 -5.55112e-17
443 1 63.2659 205.329 -5.55112e-17
444 1 137.213 189.802 -5.55112e-17
445 1 79.6231 154.998 -5.55112e-17
446 1 88.8646 64.0473 -5.55112e-17
447 1 193.517 3.18994 -5.55112e-17
448 1 71.5003 45.789 -5.55112e-17
449 1 87.7682 41.1958 -5.55112e-17
450 1 172.545 138.543 -5.55112e-17
451 1 192.8 210.674 -5.55112e-17
452 1 52.9559 163.083 -5.55112e-17
453 1 102.543 56.4364 -5.55112e-17
454 1 162.85 37.6523 -5.55112e-17
455 1 117.434 173.911 -5.55112e-17
456 1 191.569 63.1267 -5.55112e-17
457 1 204.949 72.4172 -5.55112e-17
458 1 20.7239 139.24 -5.55112e-17
459 1 189.521 54.6747 -5.55112e-17
460 1 137.153 13.0406 -5.55112e-17
461 1 204.794 146.481 -5.55112e-17
462 1 8.53979 142.186 -5.55112e-17
463 1 124.818 71.9276 -5.55112e-17
464 1 86.8639 17.0078 -5.55112e-17
465 1 22.1201 151.678 -5.55112e-17
466 1 214.392 69.3147 -5.55112e-17
467 1 170.244 122.444 -5.55112e-17
468 1 189.846 96.2461 -5.55112e-17
469 1 71.8934 205.367 -5.55112e-17
470 1 67.3689 200.451 -5.55112e-17
471 1 15.6593 54.0683 -5.55112e-17
472 1 64.0365 116.83 -5.55112e-17
473 1 68.3324 9.04029 -5.55112e-17
474 1 36.9009 72.8842 -5.55112e-17
475 1 78.1722 180.851 -5.55112e-17
476 2 215.26 60.2879 -5.55112e-17
477 1 125.356 181.102 -5.55112e-17
478 1 181.79 11.0816 -5.55112e-17
479 1 153.5 125.02 -5.55112e-17
480 1 81.5129 193.611 -5.55112e-17
481 1 139.042 202.724 -5.55112e-17
482 1 96.5422 152.92 -5.55112e-17
483 1 92.8069 106.887 -5.55112e-17
484 2 180.653 147.76 -5.55112e-17
485 1 47.8077 76.6898 -5.55112e-17
486 1 207.392 202.215 -5.55112e-17
487 1 196.911 146.734 -5.55112e-17
488 1 116.702 93.9032 -5.55112e-17
489 1 73.1654 145.002 -5.55112e-17
490 1 190.346 100.578 -5.55112e-17
491 1 41.1304 145.352 -5.55112e-17
492 1 123.425 121.597 -5.55112e-17
493 1 29.4786 37.54 -5.55112e-17
494 1 6.64615 135.844 -5.55112e-17
495 1 85.5013 140.791 -5.55112e-17
496 2 185.794 177.84 -5.55112e-17
497 1 104.638 49.6722 -5.55112e-17
498 1 82.0086 106.816 -5.55112e-17
499 2 52.1321 12.1671 -5.55112e-17
500 1 95.7813 188.439 -5.55112e-17
501 2 139.659 11.944 -5.55112e-17
502 2 16.1074 141.809 -5.55112e-17
503 1 143.914 186.6 -5.55112e-17
504 1 18.2635 66.4997 -5.55112e-17
505 1 74.235 39.7218 -5.55112e-17
506 1 152.249 10.6937 -5.55112e-17
507 1 19.2884 160.476 -5.55112e-17
508 1 215.529 53.0338 -5.55112e-17
509 2 34.7227 93.5764 -5.55112e-17
510 2 86.0582 52.5864 -5.55112e-17
511 1 164.181 180.121 -5.55112e-17
512 2 58.0424 195.03 -5.55112e-17
513 1 91.6075 43.9926 -5.55112e-17
514 1 39.0324 115.472 -5.55112e-17
515 1 162.787 109.061 -5.55112e-17
516 1 91.9499 37.4719 -5.55112e-17
517 1 14.6797 177.96 -5.55112e-17
518 2 75.2181 88.5343 -5.55112e-17
519 1 69.3105 0.275658 -5.55112e-17
520 2 143.43 209.12 -5.55112e-17
521 1 61.1872 5.36327 -5.55112e-17
522 1 1.71723 54.4259 -5.55112e-17
523 1 141.405 216.664 -5.55112e-17
524 1 134.705 121.169 -5.55112e-17
525 1 15.4679 131.051 -5.55112e-17
526 1 54.5637 130.219 -5.55112e-17
527 1 211.449 140.507 -5.55112e-17
528 1 176.92 140.653 -5.55112e-17
529 1 107.688 90.472 -5.55112e-17
530 1 211.752 196.167 -5.55112e-17
531 1 15.6857 180.834 -5.55112e-17
532 1 151.015 185.99 -5.55112e-17
533 1 53.4864 118.026 -5.55112e-17
534 1 200.378 50.1779 -5.55112e-17
535 1 80.4792 19.8192 -5.55112e-17
536 1 80.8408 118.664 -5.55112e-17
537 1 84.142 47.9176 -5.55112e-17
538 1 45.832 17.8844 -5.55112e-17
539 1 169.474 214.369 -5.55112e-17
540 1 179.61 122.686 -5.55112e-17
541 1 147.222 148.887 -5.55112e-17
542 1 189.504 113.864 -5.55112e-17
543 1 159.979 112.584 -5.55112e-17
544 1 20.211 14.4794 -5.55112e-17
545 1 204.395 21.6204 -5.55112e-17
546 1 28.5896 144.779 -5.55112e-17
547 1 83.4621 120.933 -5.55112e-17
548 1 92.9876 65.8912 -5.55112e-17
549 1 144.639 10.3608 -5.55112e-17
550 2 28.2433 217.698 -5.55112e-17
551 2 60.1368 96.8247 -5.55112e-17
552 2 148.162 177.979 -5.55112e-17
553 1 212.51 73.29 -5.55112e-17
554 1 163.699 134.287 -5.55112e-17
555 2 48.3382 175.745 -5.55112e-17
556 1 121.755 68.3005 -5.55112e-17
557 1 16.0593 148.094 -5.55112e-17
558 1 120.458 164.525 -5.55112e-17
559 1 79.0512 71.5652 -5.55112e-17
560 1 211.756 193.573 -5.55112e-17
561 1 213.75 103.591 -5.55112e-17
562 1 126.921 70.3884 -5.55112e-17
563 2 7.73638 154.286 -5.55112e-17
564 1 110.818 19.6976 -5.55112e-17
565 1 79.4707 17.8336 -5.55112e-17
566 1 187.189 172.491 -5.55112e-17
567 1 169.872 115.608 -5.55112e-17
568 1 204.466 195.611 -5.55112e-17
569 1 15.1043 59.9401 -5.55112e-17
570 1 208.971 115.704 -5.55112e-17
571 1 209.056 159.297 -5.55112e-17
572 1 91.9905 164.839 -5.55112e-17
573 1 0.651573 113.16 -5.55112e-17
574 1 173.377 176.02 -5.55112e-17
575 1 198.052 183.422 -5.55112e-17
576 1 43.3712 3.99271 -5.55112e-17
577 1 65.1094 15.2395 -5.55112e-17
578 1 141.419 202.634 -5.55112e-17
579 1 54.8114 3.53464 -5.55112e-17
580 1 114.333 108.704 -5.55112e-17
581 1 139.019 31.3332 -5.55112e-17
582 1 176.744 32.5645 -5.55112e-17
583 1 120.263 175.307 -5.55112e-17
584 2 69.3747 40.0608 -5.55112e-17
585 1 132.538 201.102 -5.55112e-17
586 1 141.993 22.9789 -5.55112e-17
587 1 13.8155 122.373 -5.55112e-17
588 1 163.081 172.483 -5.55112e-17
589 1 186.993 174.744 -5.55112e-17
590 1 80.825 215.107 -5.55112e-17
591 1 150.018 213.367 -5.55112e-17
592 1 204.28 129.644 -5.55112e-17
593 1 110.185 4.94128 -5.55112e-17
594 1 81.6681 27.1616 -5.55112e-17
595 1 169.797 129.934 -5.55112e-17
596 1 0.43224 218.433 -5.55112e-17
597 2 37.7724 98.9266 -5.55112e-17
598 1 59.7137 99.7564 -5.55112e-17
599 1 202.871 93.7315 -5.55112e-17
600 1 201.001 7.87308 -5.55112e-17
601 1 65.6182 192.983 -5.55112e-17
602 1 24.86 125.234 -5.55112e-17
603 1 105.5 207.942 -5.55112e-17
604 1 177.653 214.967 -5.55112e-17
605 2 0.527426 211.255 -5.55112e-17
606 1 105.721 174.918 -5.55112e-17
607 2 28.6685 16.3498 -5.55112e-17
608 1 45.2936 98.7305 -5.55112e-17
609 1 5.18333 100.874 -5.55112e-17
610 1 48.9153 83.7336 -5.55112e-17
611 1 185.384 190.368 -5.55112e-17
612 1 142.085 173.183 -5.55112e-17
613 1 41.6835 74.9448 -5.55112e-17
614 2 91.7965 15.7596 -5.55112e-17
615 1 161.268 86.5733 -5.55112e-17
616 1 107.113 154.888 -5.55112e-17
617 1 11.137 133.382 -5.55112e-17
618 1 148.346 161.384 -5.55112e-17
619 1 106.315 97.3028 -5.55112e-17
620 1 173.835 108.96 -5.55112e-17
621 1 91.6758 213.865 -5.55112e-17
622 1 13.8716 97.6271 -5.55112e-17
623 1 47.4149 129.116 -5.55112e-17
624 1 1.61606 182.349 -5.55112e-17
625 1 192.659 167.758 -5.55112e-17
626 1 154.054 156.75 -5.55112e-17
627 1 64.5052 43.1022 -5.55112e-17
628 1 170.32 169.647 -5.55112e-17
629 1 39.3871 42.9495 -5.55112e-17
630 2 60.8121 104.553 -5.55112e-17
631 1 53.8722 167.582 -5.55112e-17
632 1 56.0983 166.714 -5.55112e-17
633 1 146.933 201.724 -5.55112e-17
634 1 214.838 47.608 -5.55112e-17
635 1 7.25956 7.27002 -5.55112e-17
636 1 149.755 57.9836 -5.55112e-17
637 1 206.97 96.2661 -5.55112e-17
638 1 95.9039 6.07753 -5.55112e-17
639 2 30.3884 107.62 -5.55112e-17
640 1 142.581 110.994 -5.55112e-17
641 1 38.5087 101.599 -5.55112e-17
642 1 165.6 185.63 -5.55112e-17
643 2 117.784 76.6611 -5.55112e-17
644 1 13.5988 55.2358 -5.55112e-17
645 1 172.256 146.441 -5.55112e-17
646 2 186.8 25.6447 -5.55112e-17
647 1 136.994 214.006 -5.55112e-17
648 1 148.881 94.1845 -5.55112e-17
649 2 46.1875 185.995 -5.55112e-17
650 1 156.284 87.8216 -5.55112e-17
651 1 101.289 124.843 -5.55112e-17
652 1 193.47 8.21395 -5.55112e-17
653 1 190.056 157.337 -5.55112e-17
654 1 40.5133 102.573 -5.55112e-17
655 2 26.1629 5.75643 -5.55112e-17
656 1 193.085 198.56 -5.55112e-17
657 2 8.21767 72.2625 -5.55112e-17
658 1 104.046 1.82809 -5.55112e-17
659 2 184.834 141.101 -5.55112e-17
660 1 164.947 38.8736 -5.55112e-17
661 1 104.6 172.09 -5.55112e-17
662 1 218.717 216.056 -5.55112e-17
663 1 184.866 145.696 -5.55112e-17
664 1 32.3998 98.1618 -5.55112e-17
665 1 141.661 67.6293 -5.55112e-17
666 2 11.4807 217.528 -5.55112e-17
667 1 52.7337 120.571 -5.55112e-17
668 2 92.8373 23.1079 -5.55112e-17
669 1 53.9245 195.567 -5.55112e-17
670 1 94.6137 67.9146 -5.55112e-17
671 2 187.634 197.819 -5.55112e-17
672 1 17.8005 76.0485 -5.55112e-17
673 1 31.6767 86.422 -5.55112e-17
674 1 119.024 54.1132 -5.55112e-17
675 1 50.9448 82.5349 -5.55112e-17
676 1 199.12 206.557 -5.55112e-17
677 1 138.839 51.1128 -5.55112e-17
678 1 57.957 185.38 -5.55112e-17
679 2 104.275 46.5002 -5.55112e-17
680 1 90.585 217.883 -5.55112e-17
681 2 169.802 137.893 -5.55112e-17
682 1 196.049 187.696 -5.55112e-17
683 1 160.215 122.459 -5.55112e-17
684 1 211.275 120.102 -5.55112e-17
685 1 64.8866 135.36 -5.55112e-17
686 1 132.903 15.8369 -5.55112e-17
687 1 87.1984 31.3165 -5.55112e-17
688 1 203.843 178.175 -5.55112e-17
689 2 201.939 151.845 -5.55112e-17
690 1 78.8631 212.136 -5.55112e-17
691 1 72.99 74.707 -5.55112e-17
692 1 207.547 168.992 -5.55112e-17
693 1 5.04808 195.852 -5.55112e-17
694 1 217.949 190.962 -5.55112e-17
695 1 119.491 46.3005 -5.55112e-17
696 1 202.167 52.1996 -5.55112e-17
697 1 128.879 56.8515 -5.55112e-17
698 1 45.9571 191.139 -5.55112e-17
699 1 217.193 76.2588 -5.55112e-17
700 1 98.1793 104.358 -5.55112e-17
701 1 89.2497 113.312 -5.55112e-17
702 1 57.6768 22.3862 -5.55112e-17
703 2 100.375 73.2257 -5.55112e-17
704 1 4.98978 166.662 -5.55112e-17
705 2 128.731 171.478 -5.55112e-17
706 1 175.146 124.977 -5.55112e-17
707 1 13.9397 209.673 -5.55112e-17
708 1 97.8803 210.657 -5.55112e-17
709 1 110.299 195.659 -5.55112e-17
710 1 169.987 164.573 -5.55112e-17
711 1 149.357 89.5552 -5.55112e-17
712 1 184.625 131.458 -5.55112e-17
713 1 170.523 187.058 -5.55112e-17
714 1 127.371 43.2283 -5.55112e-17
715 1 6.17126 10.2528 -5.55112e-17
716 1 87.1087 111.712 -5.55112e-17
717 1 159.69 128.297 -5.55112e-17
718 1 120.231 0.180974 -5.55112e-17
719 2 9.77833 212.261 -5.55112e-17
720 1 124.061 132.291 -5.55112e-17
721 1 7.05543 144.401 -5.55112e-17
722 1 120.523 214.006 -5.55112e-17
723 2 127.099 93.2631 -5.55112e-17
724 1 154.134 61.807 -5.55112e-17
725 1 84.2135 169.574 -5.55112e-17
726 1 87.8431 141.978 -5.55112e-17
727 1 122.83 54.2296 -5.55112e-17
728 2 165.403 76.4893 -5.55112e-17
729 1 36.1071 186.964 -5.55112e-17
730 1 67.1585 53.75 -5.55112e-17
731 1 121.686 19.2327 -5.55112e-17
732 1 72.1277 4.40856 -5.55112e-17
733 1 145.006 182.273 -5.55112e-17
734 1 165.805 7.48281 -5.55112e-17
735 1 15.6608 76.6848 -5.55112e-17
736 2 4.73635 117.55 -5.55112e-17
737 1 50.9329 42.5019 -5.55112e-17
738 1 132.59 58.6791 -5.55112e-17
739 1 3.53905 63.6652 -5.55112e-17
740 1 144.175 95.1335 -5.55112e-17
741 2 93.3269 203.757 -5.55112e-17
742 1 27.6533 77.5133 -5.55112e-17
743 1 78.2592 129.209 -5.55112e-17
744 2 11.7741 26.3259 -5.55112e-17
745 1 203.379 9.67567 -5.55112e-17
746 1 85.4568 95.4486 -5.55112e-17
747 2 160.158 20.9429 -5.55112e-17
748 1 64.09 9.45157 -5.55112e-17
749 1 116.238 196.551 -5.55112e-17
750 1 33.2553 107.78 -5.55112e-17
751 1 46.5042 167.377 -5.55112e-17
752 1 213.005 49.1082 -5.55112e-17
753 1 66.0384 73.0667 -5.55112e-17
754 1 86.6695 153.958 -5.55112e-17
755 1 23.826 10.2365 -5.55112e-17
756 2 75.4429 214.753 -5.55112e-17
757 1 167.626 144.057 -5.55112e-17
758 1 7.1781 27.1849 -5.55112e-17
759 1 86.9886 21.7031 -5.55112e-17
760 1 10.934 141.46 -5.55112e-17
761 1 105.895 215.696 -5.55112e-17
762 1 137.745 155.01 -5.55112e-17
763 1 5.18417 169.517 -5.55112e-17
764 2 189.33 116.682 -5.55112e-17
765 1 52.7991 92.9264 -5.55112e-17
766 1 163.307 175.088 -5.55112e-17
767 1 40.6425 218.67 -5.55112e-17
768 1 8.54863 209.42 -5.55112e-17
769 1 147.529 183.215 -5.55112e-17
770 2 150.92 86.7268 -5.55112e-17
771 1 8.91683 137.396 -5.55112e-17
772 1 64.9502 48.8222 -5.55112e-17
773 1 129.226 75.0136 -5.55112e-17
774 1 32.3593 45.0004 -5.55112e-17
775 1 96.4454 126.978 -5.55112e-17
776 1 184.199 76.4802 -5.55112e-17
777 1 88.2069 70.8168 -5.55112e-17
778 1 171.908 131.799 -5.55112e-17
779 1 183.893 213.268 -5.55112e-17
780 1 108.055 146.152 -5.55112e-17
781 1 59.8883 208.981 -5.55112e-17
782 1 39.9474 90.7437 -5.55112e-17
783 1 207.009 79.1875 -5.55112e-17
784 2 188.534 218.855 -5.55112e-17
785 1 140.849 171.099 -5.55112e-17
786 1 157.132 97.9838 -5.55112e-17
787 1 45.5167 35.3806 -5.55112e-17
788 1 144.231 30.4109 -5.55112e-17
789 2 114.483 201.137 -5.55112e-17
790 1 124.953 117.052 -5.55112e-17
791 2 64.985 34.1183 -5.55112e-17
792 2 84.9197 78.0332 -5.55112e-17
793 2 47.3188 170.448 -5.55112e-17
794 1 191.397 1.35901 -5.55112e-17
795 1 170.164 7.34895 -5.55112e-17
796 1 136.381 61.8416 -5.55112e-17
797 1 25.4004 81.5155 -5.55112e-17
798 2 157.509 170.419 -5.55112e-17
799 2 85.4346 209.536 -5.55112e-17
800 2 211.124 13.3657 -5.55112e-17
801 1 198.645 16.7271 -5.55112e-17
802 1 217.767 36.8284 -5.55112e-17
803 1 82.9804 109.209 -5.55112e-17
804 2 157.304 210.469 -5.55112e-17
805 1 131.196 56.4994 -5.55112e-17
806 1 127.059 11.2515 -5.55112e-17
807 2 6.76457 80.4224 -5.55112e-17
808 1 32.2471 105.208 -5.55112e-17
809 2 89.2377 205.286 -5.55112e-17
810 1 156.468 47.984 -5.55112e-17
811 1 89.7316 110.54 -5.55112e-17
812 1 35.4354 5.61689 -5.55112e-17
813 2 112.579 111.36 -5.55112e-17
814 1 85.6546 146.389 -5.55112e-17
815 1 76.0313 47.0448 -5.55112e-17
816 1 184.567 96.9245 -5.55112e-17
817 1 157.719 90.0279 -5.55112e-17
818 1 63.634 73.0418 -5.55112e-17
819 1 51.3804 143.41 -5.55112e-17
820 1 186.333 160.81 -5.55112e-17
821 1 183.86 175.397 -5.55112e-17
822 2 77.1334 58.8148 -5.55112e-17
823 2 199.105 178.524 -5.55112e-17
824 1 110.658 95.1281 -5.55112e-17
825 1 159.848 81.5766 -5.55112e-17
826 1 203.801 165.406 -5.55112e-17
827 1 161.823 211.418 -5.55112e-17
828 1 44.6331 65.6696 -5.55112e-17
829 1 33.9435 25.4271 -5.55112e-17
830 1 146.053 92.591 -5.55112e-17
831 1 189.309 87.1119 -5.55112e-17
832 1 189.382 81.8555 -5.55112e-17
833 1 147.318 127.565 -5.55112e-17
834 1 104.127 9.2823 -5.55112e-17
835 1 86.3991 10.5655 -5.55112e-17
836 1 140.855 147.391 -5.55112e-17
837 1 51.1277 57.3497 -5.55112e-17
838 1 56.7185 125.906 -5.55112e-17
839 2 1.58934 179.623 -5.55112e-17
840 1 138.379 40.7864 -5.55112e-17
841 2 8.54936 189.267 -5.55112e-17
842 1 197.242 38.039 -5.55112e-17
843 2 39.4388 107.668 -5.55112e-17
844 1 118.937 168.73 -5.55112e-17
845 1 82.5134 83.129 -5.55112e-17
846 1 136.924 45.4714 -5.55112e-17
847 1 127.681 180.046 -5.55112e-17
848 1 1.3171 59.851 -5.55112e-17
849 1 64.2363 203.005 -5.55112e-17
850 1 82.004 61.1492 -5.55112e-17
851 1 75.7799 103.238 -5.55112e-17
852 1 126.66 61.4574 -5.55112e-17
853 1 10.2531 109.133 -5.55112e-17
854 1 187.92 14.7168 -5.55112e-17
855 1 183.896 133.888 -5.55112e-17
856 1 217.097 82.8919 -5.55112e-17