ITEM: TIMESTEP
0
ITEM: NUMBER OF ATOMS
7200
ITEM: BOX BOUNDS xy xz yz pp pp pp
0.0000000000000000e+00 2.1900000000000000e+02 0.0000000000000000e+00
0.0000000000000000e+00 2.1900000000000000e+02 0.0000000000000000e+00
-3.6499999999999999e-01 3.6499999999999999e-01 0.0000000000000000e+00
ITEM: ATOMS id type x y z
1 1 206.657 48.4997 -5.55112e-17
2 1 165.38 193.621 -5.55112e-17
3 1 144.931 216.876 -5.55112e-17
4 1 85.572 205.332 -5.55112e-17
5 1 209.965 188.595 -5.55112e-17
6 1 126.646 135.913 -5.55112e-17
7 1 40.3787 103.916 -5.55112e-17
8 2 127.298 114.195 -5.55112e-17
9 1 154.138 61.7169 -5.55112e-17
10 2 142.192 158.87 -5.55112e-17
11 1 34.6546 216.12 -5.55112e-17
12 1 24.8873 25.6688 -5.55112e-17
13 2 211.185 3.86993 -5.55112e-17
14 1 171.793 28.5027 -5.55112e-17
15 1 20.9173 45.53 -5.55112e-17
16 2 102.849 152.482 -5.55112e-17
17 1 45.2242 103.853 -5.55112e-17
18 2 22.0812 162.023 -5.55112e-17
19 1 155.692 47.1312 -5.55112e-17
20 1 158.27 205.502 -5.55112e-17
21 1 157.12 107.213 -5.55112e-17
22 2 120.563 47.534 -5.55112e-17
23 2 178.242 48.9594 -5.55112e-17
24 1 1.06935 20.0613 -5.55112e-17
25 1 104.857 0.817171 -5.55112e-17
26 2 140.577 164.026 -5.55112e-17
27 1 89.223 104.779 -5.55112e-17
28 2 150.192 91.6923 -5.55112e-17
29 1 156.097 212.052 -5.55112e-17
30 1 119.931 129.715 -5.55112e-17
31 1 142.569 218.106 -5.55112e-17
32 1 1.78856 214.446 -5.55112e-17
33 1 133.102 0.182724 -5.55112e-17
34 1 207.145 83.4173 -5.55112e-17
35 1 128.874 94.4621 -5.55112e-17
36 1 38.6198 101.756 -5.55112e-17
37 2 87.7356 15.059 -5.55112e-17
38 1 51.9012 73.2636 -5.55112e-17
39 1 53.5945 147.333 -5.55112e-17
40 1 216.81 111.063 -5.55112e-17
41 1 218.133 193.581 -5.55112e-17
42 1 201.9 67.4525 -5.55112e-17
43 1 68.6571 17.655 -5.55112e-17
44 1 60.8182 83.7193 -5.55112e-17
45 1 218.281 128.939 -5.55112e-17
46 1 93.0305 38.4731 -5.55112e-17
47 1 115.447 111.327 -5.55112e-17
48 2 80.234 91.8178 -5.55112e-17
49 1 217.546 49.2211 -5.55112e-17
50 1 70.2688 59.2048 -5.55112e-17
51 1 184.906 123.825 -5.55112e-17
52 1 136.105 196.811 -5.55112e-17
53 1 107.324 107.19 -5.55112e-17
54 1 57.0868 141.133 -5.55112e-17
55 1 99.1927 103.653 -5.55112e-17
56 1 58.8488 115.617 -5.55112e-17
57 2 31.3678 135.946 -5.55112e-17
58 1 128.654 158.728 -5.55112e-17
59 1 110.943 54.8113 -5.55112e-17
60 2 4.29856 0.537838 -5.55112e-17
61 2 55.3967 202.757 -5.55112e-17
62 1 126.693 96.4401 -5.55112e-17
63 1 51.3922 171.546 -5.55112e-17
64 1 93.0459 117.518 -5.55112e-17
65 1 180.941 185.98 -5.55112e-17
66 1 34.4133 95.0087 -5.55112e-17
67 1 130.67 166.65 -5.55112e-17
68 1 33.7636 22.7331 -5.55112e-17
69 1 192.173 188.404 -5.55112e-17
70 1 80.7139 169.523 -5.55112e-17
71 1 59.2203 5.24608 -5.55112e-17
72 1 24.0671 16.3434 -5.55112e-17
73 1 156.482 78.3685 -5.55112e-17
74 1 139.567 15.035 -5.55112e-17
75 2 16.6003 143.678 -5.55112e-17
76 1 24.4199 101.261 -5.55112e-17
77 1 12.3398 25.9945 -5.55112e-17
78 1 22.4135 199.044 -5.55112e-17
79 2 123.859 134.466 -5.55112e-17
80 1 109.107 215.405 -5.55112e-17
81 1 28.3678 193.914 -5.55112e-17
82 1 102.114 23.193 -5.55112e-17
83 2 112.805 129.162 -5.55112e-17
84 1 20.8606 87.1108 -5.55112e-17
85 1 63.5923 80.5002 -5.55112e-17
86 1 199.125 188.732 -5.55112e-17
87 1 190.655 30.4363 -5.55112e-17
88 1 153.533 92.7289 -5.55112e-17
89 2 18.4676 33.2102 -5.55112e-17
90 2 8.65357 94.7489 -5.55112e-17
91 1 66.733 166.716 -5.55112e-17
92 2 140.827 198.646 -5.55112e-17
93 1 170.297 187.65 -5.55112e-17
94 2 59.5564 128.791 -5.55112e-17
95 1 32.135 40.3026 -5.55112e-17
96 1 32.7536 181.578 -5.55112e-17
97 1 191.236 64.2334 -5.55112e-17
98 1 128.446 141.816 -5.55112e-17
99 1 8.33085 218.569 -5.55112e-17
100 1 61.348 29.7332 -5.55112e-17
101 1 46.1389 35.0131 -5.55112e-17
102 1 205.177 21.7754 -5.55112e-17
103 1 152.705 28.4197 -5.55112e-17
104 1 107.458 171.733 -5.55112e-17
105 1 27.5675 148.122 -5.55112e-17
106 1 95.7607 141.594 -5.55112e-17
107 2 170.434 212.049 -5.55112e-17
108 1 177.638 212.382 -5.55112e-17
109 1 37.2694 39.7012 -5.55112e-17
110 1 152.429 200.144 -5.55112e-17
111 1 43.8351 167.134 -5.55112e-17
112 1 183.621 98.5613 -5.55112e-17
113 1 155.927 18.5032 -5.55112e-17
114 1 6.92509 1.56263 -5.55112e-17
115 1 195.267 197.055 -5.55112e-17
116 2 102.091 205.205 -5.55112e-17
117 1 93.8475 140.021 -5.55112e-17
118 1 166.817 147.669 -5.55112e-17
119 2 187.691 44 -5.55112e-17
120 1 171.964 8.28808 -5.55112e-17
121 1 56.5254 37.535 -5.55112e-17
122 1 21.4313 144.613 -5.55112e-17
123 1 63.8337 107.22 -5.55112e-17
124 1 10.2424 19.1224 -5.55112e-17
125 1 120.137 188.408 -5.55112e-17
126 1 36.8783 201.417 -5.55112e-17
127 1 68.2901 203.855 -5.55112e-17
128 1 72.2048 192.407 -5.55112e-17
129 1 57.3897 51.7276 -5.55112e-17
130 1 20.0486 67.5815 -5.55112e-17
131 1 115.165 85.2452 -5.55112e-17
132 2 24.4089 81.7948 -5.55112e-17
133 1 73.7576 55.4895 -5.55112e-17
134 1 139.956 160.808 -5.55112e-17
135 1 140.599 156.084 -5.55112e-17
136 1 135.138 83.6242 -5.55112e-17
137 1 201.17 120.527 -5.55112e-17
138 1 165.331 97.1469 -5.55112e-17
139 1 3.25932 10.7372 -5.55112e-17
140 2 38.0967 0.954663 -5.55112e-17
141 1 44.3313 205.373 -5.55112e-17
142 2 43.9805 164.103 -5.55112e-17
143 1 172.559 164.339 -5.55112e-17
144 2 150.854 99.3488 -5.55112e-17
145 1 136.246 21.9237 -5.55112e-17
146 1 68.5831 65.3673 -5.55112e-17
147 1 107.746 58.7132 -5.55112e-17
148 1 118.218 118.042 -5.55112e-17
149 1 79.0717 193.601 -5.55112e-17
150 1 128.81 153.922 -5.55112e-17
151 1 23.4627 41.5839 -5.55112e-17
152 1 51.8103 139.524 -5.55112e-17
153 2 78.7469 118.287 -5.55112e-17
154 1 92.6666 31.2237 -5.55112e-17
155 1 169.63 15.855 -5.55112e-17
156 2 112.248 175.477 -5.55112e-17
157 1 105.046 67.7031 -5.55112e-17
158 1 10.2168 172.056 -5.55112e-17
159 1 126.988 149.957 -5.55112e-17
160 1 122.8 192.966 -5.55112e-17
161 1 8.60345 195.687 -5.55112e-17
162 1 104.936 121.672 -5.55112e-17
163 1 113.482 208.378 -5.55112e-17
164 1 105.559 110.911 -5.55112e-17
165 1 178.067 153.453 -5.55112e-17
166 2 63.3273 176.937 -5.55112e-17
167 1 113.591 104.461 -5.55112e-17
168 1 73.4173 25.7654 -5.55112e-17
169 1 68.5563 44.8487 -5.55112e-17
170 1 163.358 126.423 -5.55112e-17
171 1 42.7364 114.782 -5.55112e-17
172 1 18.0318 49.6364 -5.55112e-17
173 1 128.104 92.0873 -5.55112e-17
174 1 102.434 67.5495 -5.55112e-17
175 2 163.18 75.5127 -5.55112e-17
176 1 53.1696 218.997 -5.55112e-17
177 2 173.177 102.95 -5.55112e-17
178 1 17.1788 123.035 -5.55112e-17
179 1 121.327 127.198 -5.55112e-17
180 1 152.641 185.21 -5.55112e-17
181 1 190.054 32.888 -5.55112e-17
182 2 171.727 171.287 -5.55112e-17
183 1 164.615 73.0112 -5.55112e-17
184 1 4.06088 195.803 -5.55112e-17
185 2 156.255 181.579 -5.55112e-17
186 2 23.0426 66.919 -5.55112e-17
187 1 139.597 206.829 -5.55112e-17
188 1 138.298 52.2507 -5.55112e-17
189 1 193.811 64.5439 -5.55112e-17
190 2 162.965 128.902 -5.55112e-17
191 1 125.121 106.251 -5.55112e-17
192 2 70.4191 136.858 -5.55112e-17
193 2 66.0282 113.155 -5.55112e-17
194 1 28.4928 71.5171 -5.55112e-17
195 1 200.391 195.621 -5.55112e-17
196 1 170.612 176.392 -5.55112e-17
197 1 75.772 119.733 -5.55112e-17
198 2 28.5874 175.182 -5.55112e-17
199 1 38.2606 116.761 -5.55112e-17
200 1 156.634 71.1857 -5.55112e-17
201 2 101.962 144.593 -5.55112e-17
202 1 177.918 146.61 -5.55112e-17
203 1 140.73 92.1807 -5.55112e-17
204 1 190.542 214.549 -5.55112e-17
205 2 64.8128 120.574 -5.55112e-17
206 1 194.932 165.857 -5.55112e-17
207 1 207.121 67.517 -5.55112e-17
208 1 6.66213 35.4134 -5.55112e-17
209 1 141.792 22.8317 -5.55112e-17
210 1 103.865 159.418 -5.55112e-17
211 2 95.7125 40.2055 -5.55112e-17
212 1 170.332 90.9973 -5.55112e-17
213 1 100.736 45.0743 -5.55112e-17
214 1 212.639 60.9184 -5.55112e-17
215 1 150.279 199.246 -5.55112e-17
216 1 153.848 7.257 -5.55112e-17
217 1 165.758 161.587 -5.55112e-17
218 2 102.206 48.9822 -5.55112e-17
219 1 115.197 54.31 -5.55112e-17
220 2 203.504 24.216 -5.55112e-17
221 1 95.582 34.1812 -5.55112e-17
222 1 98.3725 69.9954 -5.55112e-17
223 1 78.6762 18.5631 -5.55112e-17
224 2 125.749 51.4022 -5.55112e-17
225 1 90.0252 75.2147 -5.55112e-17
226 1 154.06 155.861 -5.55112e-17
227 2 199.376 20.6175 -5.55112e-17
228 1 159.328 28.3433 -5.55112e-17
229 1 214.398 29.8504 -5.55112e-17
230 1 202.245 104.182 -5.55112e-17
231 1 81.2485 57.3515 -5.55112e-17
232 1 152.117 79.7873 -5.55112e-17
233 1 18.2754 65.7086 -5.55112e-17
234 1 209.569 132.207 -5.55112e-17
235 1 82.2213 111.845 -5.55112e-17
236 1 147.668 91.015 -5.55112e-17
237 1 141.535 208.26 -5.55112e-17
238 1 151.499 61.4376 -5.55112e-17
239 2 153.266 153.018 -5.55112e-17
240 1 216.935 159.396 -5.55112e-17
241 2 37.1489 172.618 -5.55112e-17
242 2 96.7572 216.743 -5.55112e-17
243 2 70.7069 15.7572 -5.55112e-17
244 1 140.353 110.986 -5.55112e-17
245 1 82.5131 52.6424 -5.55112e-17
246 1 196.039 39.315 -5.55112e-17
247 1 154.581 164.898 -5.55112e-17
248 1 29.6017 115.493 -5.55112e-17
249 1 27.0968 83.3766 -5.55112e-17
250 2 124.284 83.0601 -5.55112e-17
251 1 6.3792 96.5526 -5.55112e-17
252 1 29.932 39.6992 -5.55112e-17
253 1 96.3373 0.526007 -5.55112e-17
254 2 151.456 5.281 -5.55112e-17
255 1 205.77 85.3633 -5.55112e-17
256 1 142.155 124.206 -5.55112e-17
257 1 57.0475 205.002 -5.55112e-17
258 2 26.2291 52.084 -5.55112e-17
259 1 32.6947 195.303 -5.55112e-17
260 1 7.95203 44.3259 -5.55112e-17
261 1 150.68 175.205 -5.55112e-17
262 1 155.37 102.363 -5.55112e-17
263 1 118.484 6.80032 -5.55112e-17
264 1 180.028 73.8557 -5.55112e-17
265 1 108.728 105.088 -5.55112e-17
266 1 58.7401 74.3799 -5.55112e-17
267 1 163.1 184.911 -5.55112e-17
268 1 51.9647 60.1475 -5.55112e-17
269 1 150.237 147.05 -5.55112e-17
270 1 28.9867 124.267 -5.55112e-17
271 1 197.831 105.388 -5.55112e-17
272 1 154.415 218.907 -5.55112e-17
273 1 154.817 123.682 -5.55112e-17
274 2 122.901 100.666 -5.55112e-17
275 1 174.719 65.912 -5.55112e-17
276 2 36.0604 65.5585 -5.55112e-17
277 2 2.27232 90.995 -5.55112e-17
278 1 89.6793 42.2015 -5.55112e-17
279 2 168.607 182.277 -5.55112e-17
280 1 142.158 4.06713 -5.55112e-17
281 1 214.066 88.6045 -5.55112e-17
282 1 119.493 183.294 -5.55112e-17
283 1 177.897 56.7254 -5.55112e-17
284 1 157.25 117.153 -5.55112e-17
285 1 0.595511 110.635 -5.55112e-17
286 2 77.1917 211.136 -5.55112e-17
287 1 190.136 193.791 -5.55112e-17
288 1 28.6931 190.678 -5.55112e-17
289 1 217.475 188.691 -5.55112e-17
290 1 145.911 199.246 -5.55112e-17
291 1 126.353 154.971 -5.55112e-17
292 2 107.644 145.599 -5.55112e-17
293 2 58.0287 112.836 -5.55112e-17
294 1 39.2041 200.583 -5.55112e-17
295 1 194.615 102.125 -5.55112e-17
296 1 86.8776 173.835 -5.55112e-17
297 1 175.244 124.632 -5.55112e-17
298 1 211.249 118.135 -5.55112e-17
299 1 105.896 189.74 -5.55112e-17
300 2 186.793 66.8712 -5.55112e-17
301 1 71.2191 44.1656 -5.55112e-17
302 1 117.889 168.539 -5.55112e-17
303 2 58.8861 123.093 -5.55112e-17
304 2 56.3752 145.699 -5.55112e-17
305 1 56.7761 27.4965 -5.55112e-17
306 1 206.666 62.937 -5.55112e-17
307 1 39.3669 99.1801 -5.55112e-17
308 1 150.84 11.221 -5.55112e-17
309 2 8.10074 170.091 -5.55112e-17
310 1 72.746 144.991 -5.55112e-17
311 1 148.361 119.286 -5.55112e-17
312 1 83.2219 142.168 -5.55112e-17
313 2 88.1948 124.068 -5.55112e-17
314 1 183.12 148.059 -5.55112e-17
315 1 131.342 147.493 -5.55112e-17
316 1 194.879 209.061 -5.55112e-17
317 1 90.2011 83.1249 -5.55112e-17
318 1 109.851 37.0469 -5.55112e-17
319 1 62.2725 198.577 -5.55112e-17
320 1 171.32 78.6896 -5.55112e-17
321 1 38.5251 20.7843 -5.55112e-17
322 1 104.983 116.416 -5.55112e-17
323 1 173.862 190.957 -5.55112e-17
324 1 103.124 181.5 -5.55112e-17
325 1 86.8268 183.076 -5.55112e-17
326 1 96.3436 138.678 -5.55112e-17
327 2 93.635 0.137169 -5.55112e-17
328 1 69.4692 127.74 -5.55112e-17
329 2 80.5703 11.4978 -5.55112e-17
330 1 213.564 99.7111 -5.55112e-17
331 1 143.062 96.1883 -5.55112e-17
332 2 51.2786 126.978 -5.55112e-17
333 1 2.75448 144.971 -5.55112e-17
334 1 10.3813 214.418 -5.55112e-17
335 1 50.7051 32.4855 -5.55112e-17
336 1 24.5534 59.6678 -5.55112e-17
337 1 188.711 107.204 -5.55112e-17
338 1 176.621 84.2912 -5.55112e-17
339 1 109.363 176.023 -5.55112e-17
340 1 24.1527 203.222 -5.55112e-17
341 1 151.008 172.52 -5.55112e-17
342 1 186.706 174.09 -5.55112e-17
343 1 118.204 60.9599 -5.55112e-17
344 1 112.744 217.397 -5.55112e-17
345 1 56.4991 152.253 -5.55112e-17
346 1 30.1376 64.7661 -5.55112e-17
347 1 212.592 155.928 -5.55112e-17
348 1 169.671 49.6868 -5.55112e-17
349 1 33.4861 184.27 -5.55112e-17
350 2 216.781 120.999 -5.55112e-17
351 1 40.471 116.962 -5.55112e-17
352 1 206.919 0.0672772 -5.55112e-17
353 1 80.288 107.752 -5.55112e-17
354 1 161.133 183.24 -5.55112e-17
355 1 12.8832 85.1633 -5.55112e-17
356 1 36.2448 204.175 -5.55112e-17
357 1 189.959 144.278 -5.55112e-17
358 1 202.394 14.1544 -5.55112e-17
359 1 155.515 40.2859 -5.55112e-17
360 1 17.6011 36.5833 -5.55112e-17
361 1 162.909 68.0319 -5.55112e-17
362 1 80.9387 116.55 -5.55112e-17
363 1 202.774 147.858 -5.55112e-17
364 2 136.032 42.5955 -5.55112e-17
365 1 140.557 151.429 -5.55112e-17
366 1 138.131 94.1089 -5.55112e-17
367 1 217.993 103.119 -5.55112e-17
368 1 150.636 114.176 -5.55112e-17
369 2 76.6192 150.878 -5.55112e-17
370 1 102.036 57.1909 -5.55112e-17
371 1 195.703 86.5862 -5.55112e-17
372 2 79.4528 103.026 -5.55112e-17
373 2 2.0554 164.14 -5.55112e-17
374 1 106.488 51.7234 -5.55112e-17
375 1 131.314 73.1097 -5.55112e-17
376 1 189.8 209.888 -5.55112e-17
377 1 34.5666 83.9219 -5.55112e-17
378 1 54.4353 47.5674 -5.55112e-17
379 1 46.2227 65.0805 -5.55112e-17
380 1 42.331 26.6573 -5.55112e-17
381 1 158.279 140.183 -5.55112e-17
382 1 171.05 155.379 -5.55112e-17
383 1 24.8072 210.04 -5.55112e-17
384 1 74.174 31.0608 -5.55112e-17
385 1 150.628 56.8932 -5.55112e-17
386 2 179.782 25.6549 -5.55112e-17
387 1 163.903 176.495 -5.55112e-17
388 1 208.689 205.8 -5.55112e-17
389 1 187.076 160.23 -5.55112e-17
390 2 31.6359 54.3313 -5.55112e-17
391 2 10.5799 177.124 -5.55112e-17
392 1 14.4613 181.063 -5.55112e-17
393 1 195.748 160.938 -5.55112e-17
394 1 181.8 216.644 -5.55112e-17
395 1 118.656 190.434 -5.55112e-17
396 1 95.6156 87.9908 -5.55112e-17
397 1 156.391 162.779 -5.55112e-17
398 1 214.15 3.21785 -5.55112e-17
399 1 200.049 140.908 -5.55112e-17
400 1 31.6992 44.4961 -5.55112e-17
401 1 71.4632 18.7718 -5.55112e-17
402 2 79.2294 4.10155 -5.55112e-17
403 1 20.5713 197.452 -5.55112e-17
404 1 76.7312 181.616 -5.55112e-17
405 1 105.072 108.697 -5.55112e-17
406 1 162.134 39.0629 -5.55112e-17
407 2 192.205 208.024 -5.55112e-17
408 1 125.127 5.07003 -5.55112e-17
409 1 51.201 154.126 -5.55112e-17
410 1 206.383 91.0996 -5.55112e-17
411 1 116.671 41.0104 -5.55112e-17
412 1 118.823 144.011 -5.55112e-17
413 1 51.6241 163.777 -5.55112e-17
414 1 47.1362 178.704 -5.55112e-17
415 1 177.578 95.9932 -5.55112e-17
416 1 78.214 89.7403 -5.55112e-17
417 1 12.4847 156.03 -5.55112e-17
418 2 166.979 16.7408 -5.55112e-17
419 1 192.471 12.0264 -5.55112e-17
420 2 78.1384 128.954 -5.55112e-17
421 1 216.451 186.387 -5.55112e-17
422 1 150.613 59.3429 -5.55112e-17
423 2 4.65064 118.337 -5.55112e-17
424 1 41.8746 46.7139 -5.55112e-17
425 1 156.047 93.1427 -5.55112e-17
426 1 176.611 157.83 -5.55112e-17
427 1 201.667 42.1535 -5.55112e-17
428 1 69.0821 91.3718 -5.55112e-17
429 1 180.063 22.8538 -5.55112e-17
430 1 145.131 70.2405 -5.55112e-17
431 1 173.021 188.493 -5.55112e-17
432 1 146.362 172.617 -5.55112e-17
433 1 76.948 82.4747 -5.55112e-17
434 1 10.6856 86.8286 -5.55112e-17
435 1 54.2576 73.0584 -5.55112e-17
436 1 33.616 188.137 -5.55112e-17
437 1 146.804 162.324 -5.55112e-17
438 2 113.459 7.56085 -5.55112e-17
439 1 214.043 216.182 -5.55112e-17
440 1 131.911 116.12 -5.55112e-17
441 1 109.321 166.164 -5.55112e-17
442 1 76.2782 37.7836 -5.55112e-17
443 1 139.765 201.472 -5.55112e-17
444 1 155.758 139.18 -5.55112e-17
445 1 128.662 71.5337 -5.55112e-17
446 1 56.5747 82.7459 -5.55112e-17
447 1 60.1951 12.1875 -5.55112e-17
448 1 175.812 210.207 -5.55112e-17
449 1 163.534 165.487 -5.55112e-17
450 1 17.7235 76.5405 -5.55112e-17
451 1 170.185 163.606 -5.55112e-17
452 1 163.681 162.678 -5.55112e-17
453 1 2.65654 88.1341 -5.55112e-17
454 1 192.777 172.206 -5.55112e-17
455 1 99.2462 52.8816 -5.55112e-17
456 1 163.802 99.1878 -5.55112e-17
457 1 197.998 159.429 -5.55112e-17
458 1 100.053 152.077 -5.55112e-17
459 1 83.2931 128.109 -5.55112e-17
460 1 13.0366 76.9724 -5.55112e-17
461 1 87.54 75.4494 -5.55112e-17
462 1 197.499 16.4927 -5.55112e-17
463 1 130.178 114.311 -5.55112e-17
464 1 66.028 140.417 -5.55112e-17
465 1 212.773 13.0016 -5.55112e-17
466 1 66.7603 129.316 -5.55112e-17
467 1 139.748 78.1705 -5.55112e-17
468 1 17.9791 97.7061 -5.55112e-17
469 1 158.823 14.9043 -5.55112e-17
470 1 142.647 183.934 -5.55112e-17
471 1 176.481 102.569 -5.55112e-17
472 1 116.782 113.905 -5.55112e-17
473 1 197.759 186.326 -5.55112e-17
474 1 167.687 56.7496 -5.55112e-17
475 1 211.155 154.169 -5.55112e-17
476 2 125.223 181.483 -5.55112e-17
477 1 42.5062 188.928 -5.55112e-17
478 1 77.6682 12.192 -5.55112e-17
479 1 169.94 185.197 -5.55112e-17
480 1 156.363 209.282 -5.55112e-17
481 1 130.062 69.5633 -5.55112e-17
482 1 184.628 33.2842 -5.55112e-17
483 1 168.301 149.645 -5.55112e-17
484 2 185.976 148.343 -5.55112e-17
485 1 208.135 176.474 -5.55112e-17
486 1 20.0642 18.2331 -5.55112e-17
487 1 195.173 104.664 -5.55112e-17
488 1 11.9088 125.607 -5.55112e-17
489 1 151.037 140.068 -5.55112e-17
490 1 62.9272 82.6749 -5.55112e-17
491 1 147.285 11.9713 -5.55112e-17
492 1 83.3181 16.5466 -5.55112e-17
493 1 175.131 87.9912 -5.55112e-17
494 1 76.7249 104.094 -5.55112e-17
495 1 215.019 132.288 -5.55112e-17
496 2 58.8422 8.35783 -5.55112e-17
497 1 132.845 61.028 -5.55112e-17
498 1 100.326 129.18 -5.55112e-17
499 2 84.2333 116.728 -5.55112e-17
500 1 64.3573 10.3666 -5.55112e-17
501 2 123.568 59.5589 -5.55112e-17
502 2 117.437 205.332 -5.55112e-17
503 1 50.4965 56.1829 -5.55112e-17
504 1 69.59 133.935 -5.55112e-17
505 1 30.8264 92.1867 -5.55112e-17
506 1 8.0352 149.069 -5.55112e-17
507 1 209.755 19.5398 -5.55112e-17
508 1 142.341 161.856 -5.55112e-17
509 2 64.9884 24.5819 -5.55112e-17
510 2 33.8833 5.41838 -5.55112e-17
511 1 33.2624 190.594 -5.55112e-17
512 2 66.7392 152.673 -5.55112e-17
513 1 91.8406 176.026 -5.55112e-17
514 1 91.33 216.839 -5.55112e-17
515 1 197.996 35.5182 -5.55112e-17
516 1 159.877 96.2685 -5.55112e-17
517 1 12.843 15.126 -5.55112e-17
518 2 133.157 142.969 -5.55112e-17
519 1 96.495 96.5701 -5.55112e-17
520 2 39.0908 214.849 -5.55112e-17
521 1 186.775 2.67955 -5.55112e-17
522 1 185.528 30.9682 -5.55112e-17
523 1 141.482 141.992 -5.55112e-17
524 1 92.8437 41.0411 -5.55112e-17
525 1 126.087 74.6066 -5.55112e-17
526 1 186.096 54.9846 -5.55112e-17
527 1 131.72 124.563 -5.55112e-17
528 1 47.8082 116.564 -5.55112e-17
529 1 80.0169 155.423 -5.55112e-17
530 1 196.068 36.908 -5.55112e-17
531 1 115.198 179.901 -5.55112e-17
532 1 105.504 60.1841 -5.55112e-17
533 1 17.6927 212.513 -5.55112e-17
534 1 118.021 111.547 -5.55112e-17
535 1 129.995 164.096 -5.55112e-17
536 1 185.077 153.055 -5.55112e-17
537 1 79.395 14.1894 -5.55112e-17
538 1 106.754 85.6536 -5.55112e-17
539 1 187.769 0.0442661 -5.55112e-17
540 1 213.896 191.014 -5.55112e-17
541 1 210.586 80.6588 -5.55112e-17
542 1 136.895 14.7123 -5.55112e-17
543 1 122.37 54.67 -5.55112e-17
544 1 102.778 178.947 -5.55112e-17
545 1 46.5369 81.8113 -5.55112e-17
546 1 100.667 207.736 -5.55112e-17
547 1 82.6675 9.72303 -5.55112e-17
548 1 15.0286 116.277 -5.55112e-17
549 1 32.8287 57.5659 -5.55112e-17
550 2 97.2797 47.8488 -5.55112e-17
551 2 106.346 16.5651 -5.55112e-17
552 2 20.8306 147.682 -5.55112e-17
553 1 63.6331 62.9986 -5.55112e-17
554 1 27.5189 141.616 -5.55112e-17
555 2 36.4475 166.67 -5.55112e-17
556 1 90.6699 170.448 -5.55112e-17
557 1 161.054 98.9266 -5.55112e-17
558 1 18.5629 169.961 -5.55112e-17
559 1 204.151 169.671 -5.55112e-17
560 1 121.055 218.312 -5.55112e-17
561 1 192.837 144.703 -5.55112e-17
562 1 26.2861 118.497 -5.55112e-17
563 2 107.447 126.065 -5.55112e-17
564 1 186.023 63.7428 -5.55112e-17
565 1 172.256 15.3682 -5.55112e-17
566 1 72.4349 13.3373 -5.55112e-17
567 1 51.7509 99.4814 -5.55112e-17
568 1 68.3073 24.8183 -5.55112e-17
569 1 187.501 60.9833 -5.55112e-17
570 1 26.3288 61.4291 -5.55112e-17
571 1 140.786 89.3609 -5.55112e-17
572 1 22.1067 201.42 -5.55112e-17
573 1 152.835 53.3994 -5.55112e-17
574 1 134.021 191.837 -5.55112e-17
575 1 41.9352 200.42 -5.55112e-17
576 1 26.0309 78.5482 -5.55112e-17
577 1 15.5696 85.9869 -5.55112e-17
578 1 138.068 20.2326 -5.55112e-17
579 1 142.565 127.13 -5.55112e-17
580 1 137.588 26.4981 -5.55112e-17
581 1 174.083 63.4744 -5.55112e-17
582 1 186.213 106.627 -5.55112e-17
583 1 143.6 199.296 -5.55112e-17
584 2 138.225 58.2535 -5.55112e-17
585 1 59.9717 2.43694 -5.55112e-17
586 1 123.613 80.0663 -5.55112e-17
587 1 202.3 21.4574 -5.55112e-17
588 1 213.415 130.62 -5.55112e-17
589 1 143.071 49.0104 -5.55112e-17
590 1 156.47 166.797 -5.55112e-17
591 1 122.946 210.188 -5.55112e-17
592 1 209.71 152.032 -5.55112e-17
593 1 181.942 41.9511 -5.55112e-17
594 1 196.004 24.4892 -5.55112e-17
595 1 73.5645 118.565 -5.55112e-17
596 1 115.488 49.247 -5.55112e-17
597 2 141.122 172.128 -5.55112e-17
598 1 57.6653 22.095 -5.55112e-17
599 1 70.6644 114.772 -5.55112e-17
600 1 61.8358 43.1861 -5.55112e-17
601 1 212.653 184.205 -5.55112e-17
602 1 193.052 156.359 -5.55112e-17
603 1 128.018 27.4391 -5.55112e-17
604 1 151.15 30.3018 -5.55112e-17
605 2 21.3984 21.5532 -5.55112e-17
606 1 168.127 112.071 -5.55112e-17
607 2 135.327 171.694 -5.55112e-17
608 1 197.197 112.128 -5.55112e-17
609 1 67.1191 67.8292 -5.55112e-17
610 1 167.273 72.8794 -5.55112e-17
611 1 119.613 23.517 -5.55112e-17
612 1 103.259 18.3566 -5.55112e-17
613 1 111.11 99.7863 -5.55112e-17
614 2 167.055 44.5187 -5.55112e-17
615 1 214.155 178.398 -5.55112e-17
616 1 109.903 97.5557 -5.55112e-17
617 1 163.695 168.759 -5.55112e-17
618 1 175.838 130.312 -5.55112e-17
619 1 60.8406 111.551 -5.55112e-17
620 1 122.567 146.798 -5.55112e-17
621 1 126.209 43.5292 -5.55112e-17
622 1 135.397 168.688 -5.55112e-17
623 1 47.4126 193.893 -5.55112e-17
624 1 139.884 120.211 -5.55112e-17
625 1 55.2727 143.038 -5.55112e-17
626 1 89.4526 109.324 -5.55112e-17
627 1 182.494 61.2587 -5.55112e-17
628 1 139.821 2.81738 -5.55112e-17
629 1 135.919 215.899 -5.55112e-17
630 2 145.758 86.7169 -5.55112e-17
631 1 116.84 120.632 -5.55112e-17
632 1 43.9544 92.7931 -5.55112e-17
633 1 117.609 130.641 -5.55112e-17
634 1 166.81 200.128 -5.55112e-17
635 1 206.055 43.9523 -5.55112e-17
636 1 196.093 107.154 -5.55112e-17
637 1 124.542 30.1063 -5.55112e-17
638 1 157.486 186.163 -5.55112e-17
639 2 194.479 67.751 -5.55112e-17
640 1 188.919 116.448 -5.55112e-17
641 1 186.967 111.313 -5.55112e-17
642 1 174.558 27.5328 -5.55112e-17
643 2 176.967 160.595 -5.55112e-17
644 1 157.857 102.65 -5.55112e-17
645 1 181.239 49.4031 -5.55112e-17
646 2 118.681 161.422 -5.55112e-17
647 1 88.454 38.6172 -5.55112e-17
648 1 213.55 201.36 -5.55112e-17
649 2 157.229 20.9864 -5.55112e-17
650 1 185.977 97.3514 -5.55112e-17
651 1 59.3514 78.7302 -5.55112e-17
652 1 120.057 150.097 -5.55112e-17
653 1 159.094 86.2521 -5.55112e-17
654 1 61.0144 135.566 -5.55112e-17
655 2 71.2584 7.34824 -5.55112e-17
656 1 134.794 68.3343 -5.55112e-17
657 2 100.727 99.4572 -5.55112e-17
658 1 164.852 101.593 -5.55112e-17
659 2 191.707 98.4425 -5.55112e-17
660 1 184.757 50.8286 -5.55112e-17
661 1 183.535 56.0267 -5.55112e-17
662 1 144.179 107.844 -5.55112e-17
663 1 102.985 141.336 -5.55112e-17
664 1 5.6937 20.077 -5.55112e-17
665 1 91.8823 214.438 -5.55112e-17
666 2 10.8794 78.8776 -5.55112e-17
667 1 34.5653 209.045 -5.55112e-17
668 2 63.1478 212.418 -5.55112e-17
669 1 127.474 4.29091 -5.55112e-17
670 1 201.663 214.656 -5.55112e-17
671 2 10.0848 65.4308 -5.55112e-17
672 1 122.958 64.783 -5.55112e-17
673 1 157.526 149.522 -5.55112e-17
674 1 169.015 157.673 -5.55112e-17
675 1 37.1631 147.251 -5.55112e-17
676 1 208.299 2.50488 -5.55112e-17
677 1 137.369 132.408 -5.55112e-17
678 1 191.082 14.6944 -5.55112e-17
679 2 93.8732 134.109 -5.55112e-17
680 1 33.2417 166.262 -5.55112e-17
681 2 17.8227 3.52323 -5.55112e-17
682 1 67.9671 81.3741 -5.55112e-17
683 1 133.002 169.785 -5.55112e-17
684 1 43.0394 182.271 -5.55112e-17
685 1 56.5769 110.445 -5.55112e-17
686 1 210.502 38.3698 -5.55112e-17
687 1 46.0111 68.012 -5.55112e-17
688 1 60.4462 101.412 -5.55112e-17
689 2 61.997 37.2903 -5.55112e-17
690 1 40.5097 96.5225 -5.55112e-17
691 1 35.2904 90.2961 -5.55112e-17
692 1 19.0575 127.202 -5.55112e-17
693 1 143.345 99.018 -5.55112e-17
694 1 41.8612 129.225 -5.55112e-17
695 1 138.04 198.954 -5.55112e-17
696 1 44.5192 175.408 -5.55112e-17
697 1 92.9352 156.588 -5.55112e-17
698 1 154.933 148.882 -5.55112e-17
699 1 133.916 152.729 -5.55112e-17
700 1 27.8554 131.049 -5.55112e-17
701 1 206.2 109.741 -5.55112e-17
702 1 100.577 65.4078 -5.55112e-17
703 2 110.141 199.488 -5.55112e-17
704 1 183.968 150.691 -5.55112e-17
705 2 15.4577 51.2505 -5.55112e-17
706 1 95.1464 52.9897 -5.55112e-17
707 1 108.842 53.6617 -5.55112e-17
708 1 126.741 146.792 -5.55112e-17
709 1 116.592 90.5129 -5.55112e-17
710 1 126.891 194.74 -5.55112e-17
711 1 175.047 59.686 -5.55112e-17
712 1 188.004 98.9652 -5.55112e-17
713 1 94.0944 174.389 -5.55112e-17
714 1 49.98 46.1069 -5.55112e-17
715 1 196.206 100.188 -5.55112e-17
716 1 45.1468 0.818681 -5.55112e-17
717 1 17.3516 95.3733 -5.55112e-17
718 1 56.0276 9.4623 -5.55112e-17
719 2 173.426 150.902 -5.55112e-17
720 1 107.233 91.6259 -5.55112e-17
721 1 121.9 176.487 -5.55112e-17
722 1 88.8383 135.422 -5.55112e-17
723 2 67.0342 84.4519 -5.55112e-17
724 1 40.112 44.8636 -5.55112e-17
725 1 205.287 216.462 -5.55112e-17
726 1 166.046 113.638 -5.55112e-17
727 1 47.4822 4.91875 -5.55112e-17
728 2 204.523 82.1813 -5.55112e-17
729 1 30.6686 19.9978 -5.55112e-17
730 1 90.8205 25.6691 -5.55112e-17
731 1 62.6363 160.505 -5.55112e-17
732 1 158.287 59.0844 -5.55112e-17
733 1 173.559 181.583 -5.55112e-17
734 1 145.94 7.43395 -5.55112e-17
735 1 129.531 180.099 -5.55112e-17
736 2 81.6291 152.583 -5.55112e-17
737 1 46.2501 166.041 -5.55112e-17
738 1 144.934 12.8534 -5.55112e-17
739 1 173.023 125.957 -5.55112e-17
740 1 214.06 73.2045 -5.55112e-17
741 2 57.609 71.974 -5.55112e-17
742 1 62.9204 170.384 -5.55112e-17
743 1 24.5742 165.505 -5.55112e-17
744 2 120.869 76.3675 -5.55112e-17
745 1 170.145 137.133 -5.55112e-17
746 1 190.142 187.321 -5.55112e-17
747 2 15.1378 105.675 -5.55112e-17
748 1 114.788 188.534 -5.55112e-17
749 1 115.564 118.628 -5.55112e-17
750 1 61.6717 4.12741 -5.55112e-17
751 1 187.386 209.332 -5.55112e-17
752 1 216.409 28.0176 -5.55112e-17
753 1 188.402 172.392 -5.55112e-17
754 1 31.261 130.634 -5.55112e-17
755 1 74.1627 82.3504 -5.55112e-17
756 2 154.523 24.5597 -5.55112e-17
757 1 12.5919 28.2927 -5.55112e-17
758 1 87.2165 193.369 -5.55112e-17
759 1 190.548 139.353 -5.55112e-17
760 1 134.372 136.166 -5.55112e-17
761 1 206.952 174.214 -5.55112e-17
762 1 171.066 208.997 -5.55112e-17
763 1 184.799 128.307 -5.55112e-17
764 2 208.33 46.1346 -5.55112e-17
765 1 166.106 139.927 -5.55112e-17
766 1 139.669 131.204 -5.55112e-17
767 1 114.785 167.878 -5.55112e-17
768 1 137.019 110.589 -5.55112e-17
769 1 14.903 29.4427 -5.55112e-17
770 2 118.762 58.283 -5.55112e-17
771 1 218.406 201.291 -5.55112e-17
772 1 33.6207 204.768 -5.55112e-17
773 1 137.963 76.2663 -5.55112e-17
774 1 120.183 202.827 -5.55112e-17
775 1 203.517 40.2304 -5.55112e-17
776 1 136.49 117.863 -5.55112e-17
777 1 215.923 139.495 -5.55112e-17
778 1 48.6816 63.7307 -5.55112e-17
779 1 189.728 28.2526 -5.55112e-17
780 1 208.444 5.07729 -5.55112e-17
781 1 105.434 99.0599 -5.55112e-17
782 1 118.833 78.4183 -5.55112e-17
783 1 49.6399 21.885 -5.55112e-17
784 2 165.301 39.3902 -5.55112e-17
785 1 113.248 12.8235 -5.55112e-17
786 1 183.713 180.984 -5.55112e-17
787 1 49.4633 84.7157 -5.55112e-17
788 1 158.834 5.63708 -5.55112e-17
789 2 12.2096 82.1588 -5.55112e-17
790 1 169.459 207.184 -5.55112e-17
791 2 211.257 28.1607 -5.55112e-17
792 2 183.014 83.1294 -5.55112e-17
793 2 5.18914 58.4556 -5.55112e-17
794 1 72.2227 197.363 -5.55112e-17
795 1 57.067 101.094 -5.55112e-17
796 1 43.9857 148.237 -5.55112e-17
797 1 121.026 50.4226 -5.55112e-17
798 2 2.03009 44.7032 -5.55112e-17
799 2 180.373 212.391 -5.55112e-17
800 2 100.889 25.9 -5.55112e-17
801 1 124.011 41.7675 -5.55112e-17
802 1 199.166 212.563 -5.55112e-17
803 1 147.755 113.934 -5.55112e-17
804 2 61.9542 99.1234 -5.55112e-17
805 1 45.0089 158.456 -5.55112e-17
806 1 103.001 7.98513 -5.55112e-17
807 2 178.403 131.613 -5.55112e-17
808 1 113.719 42.1201 -5.55112e-17
809 2 82.9817 167.811 -5.55112e-17
810 1 16.9097 74.2568 -5.55112e-17
811 1 137.415 78.5675 -5.55112e-17
812 1 130.751 59.4312 -5.55112e-17
813 2 2.78152 7.94791 -5.55112e-17
814 1 135.358 59.7027 -5.55112e-17
815 1 4.07225 30.6674 -5.55112e-17
816 1 45.5484 97.879 -5.55112e-17
817 1 159.767 195.786 -5.55112e-17
818 1 87.9726 53.1643 -5.55112e-17
819 1 69.2081 101.409 -5.55112e-17
820 1 137.658 182.781 -5.55112e-17
821 1 105.092 213.635 -5.55112e-17
822 2 116.635 25.8559 -5.55112e-17
823 2 116.988 133.964 -5.55112e-17
824 1 69.8144 119.471 -5.55112e-17
825 1 206.513 31.7162 -5.55112e-17
826 1 204.672 196.544 -5.55112e-17
827 1 58.4377 136.163 -5.55112e-17
828 1 114.447 91.8762 -5.55112e-17
829 1 12.8829 97.9664 -5.55112e-17
830 1 198.053 30.4142 -5.55112e-17
831 1 22.5587 130.64 -5.55112e-17
832 1 184.655 136.252 -5.55112e-17
833 1 199.84 125.069 -5.55112e-17
834 1 51.7275 51.9105 -5.55112e-17
835 1 40.4401 48.8045 -5.55112e-17
836 1 162.234 101.288 -5.55112e-17
837 1 214.88 109.28 -5.55112e-17
838 1 55.4518 136.565 -5.55112e-17
839 2 93.0437 45.9295 -5.55112e-17
840 1 141.669 192.524 -5.55112e-17
841 2 205.613 135.566 -5.55112e-17
842 1 101.233 166.15 -5.55112e-17
843 2 146.593 23.3341 -5.55112e-17
844 1 11.0607 33.6299 -5.55112e-17
845 1 177.425 81.9002 -5.55112e-17
846 1 131.732 86.1537 -5.55112e-17
847 1 156.706 100.066 -5.55112e-17
848 1 176.921 150.711 -5.55112e-17
849 1 178.5 38.6745 -5.55112e-17
850 1 103.214 45.9246 -5.55112e-17
851 1 164.793 23.7611 -5.55112e-17
852 1 163.14 78.1311 -5.55112e-17
853 1 168.51 39.9784 -5.55112e-17
854 1 196.872 79.4097 -5.55112e-17
855 1 40.0507 114.743 -5.55112e-17
856 1 170.965 47.411 -5.55112e-17