ITEM: TIMESTEP
0
ITEM: NUMBER OF ATOMS
7200
ITEM: BOX BOUNDS xy xz yz pp pp pp
0.0000000000000000e+00 2.1900000000000000e+02 0.0000000000000000e+00
0.0000000000000000e+00 2.1900000000000000e+02 0.0000000000000000e+00
-3.6499999999999999e-01 3.6499999999999999e-01 0.0000000000000000e+00
ITEM: ATOMS id type x y z
1 1 213.753 56.7317 -5.55112e-17
2 1 10.7688 50.2094 -5.55112e-17
3 1 15.1865 105.973 -5.55112e-17
4 1 46.5816 158.241 -5.55112e-17
5 1 168.647 158.71 -5.55112e-17
6 1 203.159 65.5813 -5.55112e-17
7 1 216.603 194.244 -5.55112e-17
8 2 161.524 157.737 -5.55112e-17
9 1 90.68 6.45268 -5.55112e-17
10 2 188.79 128.323 -5.55112e-17
11 1 192.745 66.8211 -5.55112e-17
12 1 28.9927 103.874 -5.55112e-17
13 2 157.902 206.711 -5.55112e-17
14 1 120.778 4.35867 -5.55112e-17
15 1 3.37346 44.1465 -5.55112e-17
16 2 173.275 198.448 -5.55112e-17
17 1 190.634 65.5381 -5.55112e-17
18 2 27.0986 117.594 -5.55112e-17
19 1 192.841 72.7288 -5.55112e-17
20 1 15.4753 152.554 -5.55112e-17
21 1 55.2545 148.396 -5.55112e-17
22 2 72.8973 44.9416 -5.55112e-17
23 2 6.08198 45.5141 -5.55112e-17
24 1 31.3596 201.797 -5.55112e-17
25 1 36.2604 27.7016 -5.55112e-17
26 2 2.79664 133.557 -5.55112e-17
27 1 193.898 202.569 -5.55112e-17
28 2 88.0777 192.812 -5.55112e-17
29 1 197.277 70.6772 -5.55112e-17
30 1 129.839 130.493 -5.55112e-17
31 1 127.017 105.242 -5.55112e-17
32 1 35.6379 54.2139 -5.55112e-17
33 1 112.423 169.926 -5.55112e-17
34 1 192.017 94.282 -5.55112e-17
35 1 143.819 178.551 -5.55112e-17
36 1 69.901 105.624 -5.55112e-17
37 2 201.039 207.496 -5.55112e-17
38 1 197.846 124.692 -5.55112e-17
39 1 173.127 106.726 -5.55112e-17
40 1 81.1145 151.36 -5.55112e-17
41 1 30.1466 159.361 -5.55112e-17
42 1 165.289 151.752 -5.55112e-17
43 1 163.537 65.5826 -5.55112e-17
44 1 145.806 0.810844 -5.55112e-17
45 1 64.4813 105.816 -5.55112e-17
46 1 54.1425 21.4769 -5.55112e-17
47 1 101.466 117.335 -5.55112e-17
48 2 211.483 53.1987 -5.55112e-17
49 1 134.159 177.574 -5.55112e-17
50 1 215.912 171.813 -5.55112e-17
51 1 14.0394 192.613 -5.55112e-17
52 1 139.157 87.0108 -5.55112e-17
53 1 11.7039 151.111 -5.55112e-17
54 1 183.754 146.692 -5.55112e-17
55 1 16.6218 56.4571 -5.55112e-17
56 1 103.202 192.416 -5.55112e-17
57 2 182.911 129.023 -5.55112e-17
58 1 153.039 0.156309 -5.55112e-17
59 1 38.7944 1.83301 -5.55112e-17
60 2 109.045 23.0394 -5.55112e-17
61 2 6.47246 101.689 -5.55112e-17
62 1 13.476 69.1913 -5.55112e-17
63 1 35.3448 77.814 -5.55112e-17
64 1 45.7497 84.5659 -5.55112e-17
65 1 209.14 214.673 -5.55112e-17
66 1 14.421 17.0146 -5.55112e-17
67 1 9.96584 160.639 -5.55112e-17
68 1 57.4483 211.515 -5.55112e-17
69 1 65.7906 150.397 -5.55112e-17
70 1 47.8405 101.003 -5.55112e-17
71 1 78.0834 53.1363 -5.55112e-17
72 1 19.9047 133.829 -5.55112e-17
73 1 125.811 142.036 -5.55112e-17
74 1 174.299 7.65228 -5.55112e-17
75 2 119.454 201.704 -5.55112e-17
76 1 129.088 83.6311 -5.55112e-17
77 1 152.02 14.2085 -5.55112e-17
78 1 96.8902 90.307 -5.55112e-17
79 2 159.009 180.642 -5.55112e-17
80 1 172 8.64307 -5.55112e-17
81 1 133.372 102.846 -5.55112e-17
82 1 200.141 214.621 -5.55112e-17
83 2 96.1851 216.099 -5.55112e-17
84 1 202.374 212.918 -5.55112e-17
85 1 62.3365 142.878 -5.55112e-17
86 1 123.601 157.277 -5.55112e-17
87 1 60.3834 164.822 -5.55112e-17
88 1 51.5903 178.813 -5.55112e-17
89 2 183.102 54.7724 -5.55112e-17
90 2 65.076 83.3945 -5.55112e-17
91 1 99.0735 8.41914 -5.55112e-17
92 2 195.306 85.8875 -5.55112e-17
93 1 204.426 211.244 -5.55112e-17
94 2 130.155 78.4308 -5.55112e-17
95 1 198.414 37.5457 -5.55112e-17
96 1 132.274 9.09261 -5.55112e-17
97 1 45.5944 102.483 -5.55112e-17
98 1 207.467 151.355 -5.55112e-17
99 1 154.852 195.72 -5.55112e-17
100 1 94.2172 79.4204 -5.55112e-17
101 1 66.0024 5.71125 -5.55112e-17
102 1 70.3161 80.7057 -5.55112e-17
103 1 149.355 183.74 -5.55112e-17
104 1 196.118 83.2952 -5.55112e-17
105 1 56.7086 174.211 -5.55112e-17
106 1 167.214 112.483 -5.55112e-17
107 2 74.6854 32.3932 -5.55112e-17
108 1 133.417 1.55775 -5.55112e-17
109 1 204.821 67.2832 -5.55112e-17
110 1 189.724 186.362 -5.55112e-17
111 1 214.746 189.573 -5.55112e-17
112 1 165.549 94.0871 -5.55112e-17
113 1 143.945 47.2975 -5.55112e-17
114 1 65.2937 115.846 -5.55112e-17
115 1 38.8867 87.0492 -5.55112e-17
116 2 54.5028 74.4905 -5.55112e-17
117 1 215.829 164.825 -5.55112e-17
118 1 91.5243 103.018 -5.55112e-17
119 2 147.702 185.947 -5.55112e-17
120 1 49.3478 113.93 -5.55112e-17
121 1 5.6107 113.78 -5.55112e-17
122 1 49.2751 158.495 -5.55112e-17
123 1 181.151 8.20515 -5.55112e-17
124 1 126.53 92.1742 -5.55112e-17
125 1 152.955 212.177 -5.55112e-17
126 1 7.3734 146.138 -5.55112e-17
127 1 13.3016 206.703 -5.55112e-17
128 1 153.597 38.6871 -5.55112e-17
129 1 13.2183 122.366 -5.55112e-17
130 1 144.71 99.4177 -5.55112e-17
131 1 208.846 63.4366 -5.55112e-17
132 2 68.7845 198.572 -5.55112e-17
133 1 62.5423 76.1237 -5.55112e-17
134 1 155.508 208.286 -5.55112e-17
135 1 152.376 86.035 -5.55112e-17
136 1 76.633 120.605 -5.55112e-17
137 1 113.286 190.205 -5.55112e-17
138 1 124.046 83.6206 -5.55112e-17
139 1 90.8366 193.491 -5.55112e-17
140 2 171.069 16.4182 -5.55112e-17
141 1 69.0295 193.507 -5.55112e-17
142 2 0.563994 107.504 -5.55112e-17
143 1 155.535 115.214 -5.55112e-17
144 2 36.0839 128.133 -5.55112e-17
145 1 154.237 97.2467 -5.55112e-17
146 1 67.9618 170.093 -5.55112e-17
147 1 144.941 25.7638 -5.55112e-17
148 1 82.2958 43.6896 -5.55112e-17
149 1 10.8823 168.168 -5.55112e-17
150 1 202.037 20.4754 -5.55112e-17
151 1 42.9762 165.168 -5.55112e-17
152 1 186.575 146.804 -5.55112e-17
153 2 34.3643 189.006 -5.55112e-17
154 1 84.4448 69.1495 -5.55112e-17
155 1 43.2323 0.363126 -5.55112e-17
156 2 166.242 91.0425 -5.55112e-17
157 1 37.1611 24.5761 -5.55112e-17
158 1 136.519 22.6214 -5.55112e-17
159 1 140.748 182.769 -5.55112e-17
160 1 69.9943 99.1965 -5.55112e-17
161 1 58.609 10.999 -5.55112e-17
162 1 170.037 100.185 -5.55112e-17
163 1 24.1581 65.1595 -5.55112e-17
164 1 56.7954 69.4026 -5.55112e-17
165 1 191.689 32.7489 -5.55112e-17
166 2 128.835 100.529 -5.55112e-17
167 1 80.8081 148.812 -5.55112e-17
168 1 8.13521 205.078 -5.55112e-17
169 1 26.5482 64.0025 -5.55112e-17
170 1 122.748 130.736 -5.55112e-17
171 1 205.336 150.151 -5.55112e-17
172 1 156.157 47.8069 -5.55112e-17
173 1 155.872 21.4234 -5.55112e-17
174 1 19.4115 105.432 -5.55112e-17
175 2 0.63249 102.214 -5.55112e-17
176 1 146.287 31.2181 -5.55112e-17
177 2 99.1606 0.714081 -5.55112e-17
178 1 20.1163 33.8547 -5.55112e-17
179 1 208.788 92.277 -5.55112e-17
180 1 202.791 131.988 -5.55112e-17
181 1 94.1712 174.917 -5.55112e-17
182 2 6.50337 9.84911 -5.55112e-17
183 1 19.243 167.965 -5.55112e-17
184 1 12.9674 174.573 -5.55112e-17
185 2 123.936 49.3974 -5.55112e-17
186 2 94.7121 54.4669 -5.55112e-17
187 1 140.365 160.393 -5.55112e-17
188 1 147.073 182.845 -5.55112e-17
189 1 208.577 53.3399 -5.55112e-17
190 2 172.797 35.7179 -5.55112e-17
191 1 67.4627 123.61 -5.55112e-17
192 2 88.7334 119.934 -5.55112e-17
193 2 26.9497 163.733 -5.55112e-17
194 1 199.75 59.7574 -5.55112e-17
195 1 151.122 155.108 -5.55112e-17
196 1 66.6844 183.405 -5.55112e-17
197 1 138.063 161.726 -5.55112e-17
198 2 47.9325 185.824 -5.55112e-17
199 1 36.6614 212.919 -5.55112e-17
200 1 57.9011 28.3093 -5.55112e-17
201 2 135.202 61.5706 -5.55112e-17
202 1 97.9454 44.5819 -5.55112e-17
203 1 70.6063 61.1396 -5.55112e-17
204 1 136.212 208.136 -5.55112e-17
205 2 11.7284 148.274 -5.55112e-17
206 1 86.0379 204.15 -5.55112e-17
207 1 113.405 192.587 -5.55112e-17
208 1 18.4036 26.7928 -5.55112e-17
209 1 113.892 83.5047 -5.55112e-17
210 1 159.678 153.201 -5.55112e-17
211 2 2.8151 22.8976 -5.55112e-17
212 1 101.989 107.862 -5.55112e-17
213 1 25.9225 69.4074 -5.55112e-17
214 1 19.209 16.7803 -5.55112e-17
215 1 17.1096 28.9726 -5.55112e-17
216 1 178.75 89.5743 -5.55112e-17
217 1 95.0166 186.493 -5.55112e-17
218 2 157.374 210.462 -5.55112e-17
219 1 24.768 122.059 -5.55112e-17
220 2 17.1563 128.232 -5.55112e-17
221 1 207.04 59.7935 -5.55112e-17
222 1 168.668 194.987 -5.55112e-17
223 1 60.0185 16.1427 -5.55112e-17
224 2 213.193 204.95 -5.55112e-17
225 1 67.7043 177.135 -5.55112e-17
226 1 170.538 88.0704 -5.55112e-17
227 2 203.997 176.097 -5.55112e-17
228 1 104.25 200.364 -5.55112e-17
229 1 145.062 60.4764 -5.55112e-17
230 1 196.561 169.103 -5.55112e-17
231 1 174.801 97.144 -5.55112e-17
232 1 127.529 58.2017 -5.55112e-17
233 1 190.345 57.5992 -5.55112e-17
234 1 177.259 42.2918 -5.55112e-17
235 1 4.46123 76.4942 -5.55112e-17
236 1 172.245 146.331 -5.55112e-17
237 1 67.627 44.939 -5.55112e-17
238 1 74.9206 126.507 -5.55112e-17
239 2 3.16278 115.244 -5.55112e-17
240 1 134.512 58.501 -5.55112e-17
241 2 82.5125 102.138 -5.55112e-17
242 2 113.507 3.00975 -5.55112e-17
243 2 68.0754 0.733594 -5.55112e-17
244 1 102.804 197.959 -5.55112e-17
245 1 71.9171 149.589 -5.55112e-17
246 1 93.2836 215.516 -5.55112e-17
247 1 173.652 58.7571 -5.55112e-17
248 1 118.287 147.562 -5.55112e-17
249 1 206.851 41.8558 -5.55112e-17
250 2 93.4329 6.88855 -5.55112e-17
251 1 156.994 8.6272 -5.55112e-17
252 1 123.118 64.9203 -5.55112e-17
253 1 97.9828 137.843 -5.55112e-17
254 2 120.012 180.833 -5.55112e-17
255 1 31.9866 56.653 -5.55112e-17
256 1 204.475 158.597 -5.55112e-17
257 1 87.8007 56.9142 -5.55112e-17
258 2 16.7733 194.462 -5.55112e-17
259 1 160.669 199.114 -5.55112e-17
260 1 13.5548 135.244 -5.55112e-17
261 1 101.185 134.252 -5.55112e-17
262 1 182.093 98.0439 -5.55112e-17
263 1 88.2977 12.1044 -5.55112e-17
264 1 71.9415 175.608 -5.55112e-17
265 1 136.294 37.4292 -5.55112e-17
266 1 112.043 96.8178 -5.55112e-17
267 1 160.64 125.097 -5.55112e-17
268 1 59.4568 209.908 -5.55112e-17
269 1 86.7127 41.3613 -5.55112e-17
270 1 50.8193 57.3115 -5.55112e-17
271 1 63.195 19.2988 -5.55112e-17
272 1 171.765 182.129 -5.55112e-17
273 1 211.974 82.2754 -5.55112e-17
274 2 183.693 157.325 -5.55112e-17
275 1 210.213 110.813 -5.55112e-17
276 2 108.103 59.1553 -5.55112e-17
277 2 197.194 213.547 -5.55112e-17
278 1 182.026 5.62666 -5.55112e-17
279 2 162.143 56.1324 -5.55112e-17
280 1 122.129 203.207 -5.55112e-17
281 1 144.479 206.649 -5.55112e-17
282 1 196.458 5.06892 -5.55112e-17
283 1 35.0865 183.399 -5.55112e-17
284 1 97.1898 147.889 -5.55112e-17
285 1 29.1485 9.77026 -5.55112e-17
286 2 97.094 6.02246 -5.55112e-17
287 1 93.7873 159.029 -5.55112e-17
288 1 76.9608 177.181 -5.55112e-17
289 1 31.7669 178.625 -5.55112e-17
290 1 152.07 160.876 -5.55112e-17
291 1 106.144 70.8987 -5.55112e-17
292 2 186.577 166.806 -5.55112e-17
293 2 46.4863 117.79 -5.55112e-17
294 1 128.097 128.339 -5.55112e-17
295 1 127.662 94.6293 -5.55112e-17
296 1 51.2518 18.3529 -5.55112e-17
297 1 184.688 162.013 -5.55112e-17
298 1 106.289 40.7148 -5.55112e-17
299 1 106.944 175.612 -5.55112e-17
300 2 116.122 52.0661 -5.55112e-17
301 1 146.816 23.9045 -5.55112e-17
302 1 117.429 216.209 -5.55112e-17
303 2 99.571 38.8268 -5.55112e-17
304 2 35.3981 61.3538 -5.55112e-17
305 1 45.1269 10.1301 -5.55112e-17
306 1 133.155 127.606 -5.55112e-17
307 1 18.8297 156.541 -5.55112e-17
308 1 160.706 135.293 -5.55112e-17
309 2 107.328 185.927 -5.55112e-17
310 1 45.6515 125.98 -5.55112e-17
311 1 187.539 185.203 -5.55112e-17
312 1 1.95876 141.055 -5.55112e-17
313 2 169.97 38.0606 -5.55112e-17
314 1 205.766 168.554 -5.55112e-17
315 1 162.077 160.569 -5.55112e-17
316 1 153.433 27.1789 -5.55112e-17
317 1 140.634 128.336 -5.55112e-17
318 1 114.121 0.376888 -5.55112e-17
319 1 80.403 180.718 -5.55112e-17
320 1 180.073 170.881 -5.55112e-17
321 1 14.9663 204.812 -5.55112e-17
322 1 89.0762 122.703 -5.55112e-17
323 1 90.7289 29.8675 -5.55112e-17
324 1 161.898 130.259 -5.55112e-17
325 1 90.3049 149.763 -5.55112e-17
326 1 36.0511 179.028 -5.55112e-17
327 2 102.983 127.06 -5.55112e-17
328 1 81.6311 85.7274 -5.55112e-17
329 2 76.9923 91.7803 -5.55112e-17
330 1 198.827 202.43 -5.55112e-17
331 1 123.212 3.71267 -5.55112e-17
332 2 86.2596 18.8607 -5.55112e-17
333 1 204.303 141.787 -5.55112e-17
334 1 138.341 203.117 -5.55112e-17
335 1 185.949 128.308 -5.55112e-17
336 1 199.633 88.6973 -5.55112e-17
337 1 16.6354 191.629 -5.55112e-17
338 1 162.992 42.8857 -5.55112e-17
339 1 30.5171 209.491 -5.55112e-17
340 1 84.9261 201.896 -5.55112e-17
341 1 173.066 0.674173 -5.55112e-17
342 1 158.594 165.116 -5.55112e-17
343 1 137.908 106.415 -5.55112e-17
344 1 94.3386 48.1563 -5.55112e-17
345 1 75.8537 52.3568 -5.55112e-17
346 1 18.3646 45.556 -5.55112e-17
347 1 62.3724 83.3937 -5.55112e-17
348 1 93.0093 77.3193 -5.55112e-17
349 1 183.826 85.0551 -5.55112e-17
350 2 92.3854 27.2652 -5.55112e-17
351 1 27.7926 145.5 -5.55112e-17
352 1 31.9406 204.21 -5.55112e-17
353 1 54.9356 105.983 -5.55112e-17
354 1 120.006 39.708 -5.55112e-17
355 1 158.729 12.6384 -5.55112e-17
356 1 130.77 161.34 -5.55112e-17
357 1 131.373 183.93 -5.55112e-17
358 1 84.4495 44.9524 -5.55112e-17
359 1 58.6482 136.836 -5.55112e-17
360 1 25.769 52.934 -5.55112e-17
361 1 187.971 148.491 -5.55112e-17
362 1 42.9781 150.244 -5.55112e-17
363 1 16.1018 142.189 -5.55112e-17
364 2 204.44 19.2406 -5.55112e-17
365 1 51.3613 89.3302 -5.55112e-17
366 1 177.299 115.038 -5.55112e-17
367 1 67.269 130.677 -5.55112e-17
368 1 67.1896 25.4766 -5.55112e-17
369 2 53.3305 143.37 -5.55112e-17
370 1 161.368 64.5895 -5.55112e-17
371 1 124.237 204.33 -5.55112e-17
372 2 149.156 36.7788 -5.55112e-17
373 2 181.777 181.165 -5.55112e-17
374 1 82.6564 27.3742 -5.55112e-17
375 1 122.47 62.5306 -5.55112e-17
376 1 214.383 137.227 -5.55112e-17
377 1 123.587 166.354 -5.55112e-17
378 1 14.3976 29.1076 -5.55112e-17
379 1 77.9618 103.943 -5.55112e-17
380 1 154.605 7.96177 -5.55112e-17
381 1 182.256 198.885 -5.55112e-17
382 1 196.083 115.73 -5.55112e-17
383 1 110.885 15.5516 -5.55112e-17
384 1 189.461 173.128 -5.55112e-17
385 1 69.6461 78.4009 -5.55112e-17
386 2 209.975 70.3123 -5.55112e-17
387 1 17.6186 122.2 -5.55112e-17
388 1 136.408 53.1073 -5.55112e-17
389 1 96.6243 87.6315 -5.55112e-17
390 2 187.109 204.712 -5.55112e-17
391 2 207.777 180.849 -5.55112e-17
392 1 175.102 159.599 -5.55112e-17
393 1 192.715 87.3426 -5.55112e-17
394 1 131.017 194.68 -5.55112e-17
395 1 56.1429 143.721 -5.55112e-17
396 1 98.9115 216.524 -5.55112e-17
397 1 57.9373 86.8994 -5.55112e-17
398 1 144.301 81.4712 -5.55112e-17
399 1 3.77147 142.92 -5.55112e-17
400 1 79.6167 142.226 -5.55112e-17
401 1 32.722 186.817 -5.55112e-17
402 2 83.0651 82.9161 -5.55112e-17
403 1 196.691 127.928 -5.55112e-17
404 1 50.168 207.355 -5.55112e-17
405 1 135.758 2.33089 -5.55112e-17
406 1 33.6448 102.751 -5.55112e-17
407 2 11.832 162.756 -5.55112e-17
408 1 104.932 2.86744 -5.55112e-17
409 1 33.1514 49.7451 -5.55112e-17
410 1 34.2133 121.359 -5.55112e-17
411 1 4.29933 217.11 -5.55112e-17
412 1 153.062 163.254 -5.55112e-17
413 1 52.9193 166.672 -5.55112e-17
414 1 83.5299 147.083 -5.55112e-17
415 1 106.3 135.276 -5.55112e-17
416 1 49.2764 111.365 -5.55112e-17
417 1 128.895 183.328 -5.55112e-17
418 2 98.2181 75.6875 -5.55112e-17
419 1 111.445 94.5977 -5.55112e-17
420 2 7.93551 25.4224 -5.55112e-17
421 1 138.812 177.237 -5.55112e-17
422 1 39.8491 205.371 -5.55112e-17
423 2 19.1767 93.6059 -5.55112e-17
424 1 115.136 49.4117 -5.55112e-17
425 1 172.729 45.7269 -5.55112e-17
426 1 145.414 197.049 -5.55112e-17
427 1 4.7677 27.5583 -5.55112e-17
428 1 80.8902 215.83 -5.55112e-17
429 1 145.385 28.3954 -5.55112e-17
430 1 149.438 170.017 -5.55112e-17
431 1 199.103 23.9471 -5.55112e-17
432 1 139.813 66.26 -5.55112e-17
433 1 153.544 22.2567 -5.55112e-17
434 1 23.95 155.792 -5.55112e-17
435 1 145.242 184.101 -5.55112e-17
436 1 157.775 57.7459 -5.55112e-17
437 1 23.6656 84.2004 -5.55112e-17
438 2 100.648 91.0834 -5.55112e-17
439 1 67.2878 201.695 -5.55112e-17
440 1 24.4833 148.807 -5.55112e-17
441 1 99.6006 158.25 -5.55112e-17
442 1 200.607 83.5182 -5.55112e-17
443 1 70.6351 170.635 -5.55112e-17
444 1 44.2059 119.685 -5.55112e-17
445 1 110.248 2.65944 -5.55112e-17
446 1 186.348 80.7584 -5.55112e-17
447 1 20.6732 38.8545 -5.55112e-17
448 1 123.55 18.9356 -5.55112e-17
449 1 130.803 85.4919 -5.55112e-17
450 1 141.912 76.4786 -5.55112e-17
451 1 172.03 81.0789 -5.55112e-17
452 1 97.3247 179.636 -5.55112e-17
453 1 133.78 180.026 -5.55112e-17
454 1 160.349 101.024 -5.55112e-17
455 1 55.8749 123.989 -5.55112e-17
456 1 110.232 151.857 -5.55112e-17
457 1 22.3757 12.1286 -5.55112e-17
458 1 141.691 214.009 -5.55112e-17
459 1 4.15575 181.948 -5.55112e-17
460 1 55.6555 101.41 -5.55112e-17
461 1 54.2978 63.1724 -5.55112e-17
462 1 37.7288 195.472 -5.55112e-17
463 1 60.5052 115.746 -5.55112e-17
464 1 207.083 145.063 -5.55112e-17
465 1 188.181 153.421 -5.55112e-17
466 1 169.73 30.9769 -5.55112e-17
467 1 215.532 117.788 -5.55112e-17
468 1 41.7698 115.738 -5.55112e-17
469 1 148.744 46.2326 -5.55112e-17
470 1 42.939 40.7444 -5.55112e-17
471 1 185.956 176.796 -5.55112e-17
472 1 149.813 125.658 -5.55112e-17
473 1 194.684 181.834 -5.55112e-17
474 1 194.735 187.692 -5.55112e-17
475 1 53.6147 124.91 -5.55112e-17
476 2 7.95055 168.343 -5.55112e-17
477 1 190.715 209.16 -5.55112e-17
478 1 158.764 102.983 -5.55112e-17
479 1 162.958 184.152 -5.55112e-17
480 1 140.687 102.324 -5.55112e-17
481 1 15.2296 139.992 -5.55112e-17
482 1 84.8964 1.01111 -5.55112e-17
483 1 46.2684 201.471 -5.55112e-17
484 2 94.0262 135.099 -5.55112e-17
485 1 202.488 154.163 -5.55112e-17
486 1 56.2526 19.7673 -5.55112e-17
487 1 84.7838 142.271 -5.55112e-17
488 1 77.5905 2.82121 -5.55112e-17
489 1 192.669 192.843 -5.55112e-17
490 1 180.516 69.1012 -5.55112e-17
491 1 157.603 120.055 -5.55112e-17
492 1 119.232 82.0049 -5.55112e-17
493 1 80.9604 195.606 -5.55112e-17
494 1 170.642 144.008 -5.55112e-17
495 1 217.559 29.8156 -5.55112e-17
496 2 195.068 125.5 -5.55112e-17
497 1 211.194 153.702 -5.55112e-17
498 1 182.518 183.855 -5.55112e-17
499 2 137.795 68.4425 -5.55112e-17
500 1 212.44 132.904 -5.55112e-17
501 2 217.326 130.604 -5.55112e-17
502 2 30.8658 145.136 -5.55112e-17
503 1 138.257 148.114 -5.55112e-17
504 1 149.506 188.081 -5.55112e-17
505 1 204.175 188.657 -5.55112e-17
506 1 25.3474 82.3863 -5.55112e-17
507 1 169.303 155.821 -5.55112e-17
508 1 53.4497 60.6279 -5.55112e-17
509 2 62.717 150.447 -5.55112e-17
510 2 156.561 149.251 -5.55112e-17
511 1 45.7672 205.97 -5.55112e-17
512 2 73.8541 173.937 -5.55112e-17
513 1 105.295 59.3953 -5.55112e-17
514 1 23.5921 26.6209 -5.55112e-17
515 1 96.7761 24.9947 -5.55112e-17
516 1 13.023 153.211 -5.55112e-17
517 1 159.686 18.4629 -5.55112e-17
518 2 182.26 116.578 -5.55112e-17
519 1 79.5125 106.175 -5.55112e-17
520 2 216.423 69.1089 -5.55112e-17
521 1 96.2501 46.6925 -5.55112e-17
522 1 113.516 141.877 -5.55112e-17
523 1 38.8303 4.47976 -5.55112e-17
524 1 217.61 5.99043 -5.55112e-17
525 1 179.613 215.122 -5.55112e-17
526 1 34.1527 87.2732 -5.55112e-17
527 1 127.912 97.2568 -5.55112e-17
528 1 40.2601 45.3144 -5.55112e-17
529 1 116.254 135.021 -5.55112e-17
530 1 81.7128 185.376 -5.55112e-17
531 1 32.0424 85.9605 -5.55112e-17
532 1 36.5645 138.759 -5.55112e-17
533 1 139.818 63.8035 -5.55112e-17
534 1 194.913 215.751 -5.55112e-17
535 1 59.6051 38.6862 -5.55112e-17
536 1 139.138 18.5325 -5.55112e-17
537 1 41.9684 30.0921 -5.55112e-17
538 1 86.4378 5.00237 -5.55112e-17
539 1 19.2248 193.503 -5.55112e-17
540 1 57.2842 99.3163 -5.55112e-17
541 1 39.9281 162.907 -5.55112e-17
542 1 70.5611 189.368 -5.55112e-17
543 1 66.3053 66.8633 -5.55112e-17
544 1 138.461 13.3301 -5.55112e-17
545 1 13.9264 157.932 -5.55112e-17
546 1 140.086 212.338 -5.55112e-17
547 1 9.00247 35.6625 -5.55112e-17
548 1 206.596 142.731 -5.55112e-17
549 1 102.372 110.11 -5.55112e-17
550 2 200.223 77.4904 -5.55112e-17
551 2 97.3931 28.3251 -5.55112e-17
552 2 116.703 176.708 -5.55112e-17
553 1 97.6082 117.739 -5.55112e-17
554 1 84.2122 186.419 -5.55112e-17
555 2 93.8118 101.362 -5.55112e-17
556 1 198.904 26.6747 -5.55112e-17
557 1 114.662 153.621 -5.55112e-17
558 1 170.833 177.257 -5.55112e-17
559 1 17.6449 58.596 -5.55112e-17
560 1 210.291 94.6457 -5.55112e-17
561 1 51.2752 110.082 -5.55112e-17
562 1 39.7009 216.27 -5.55112e-17
563 2 172.483 141.322 -5.55112e-17
564 1 197.617 161.826 -5.55112e-17
565 1 200.533 80.678 -5.55112e-17
566 1 152.026 36.595 -5.55112e-17
567 1 88.8819 24.2576 -5.55112e-17
568 1 184.811 36.5222 -5.55112e-17
569 1 82.9446 92.2583 -5.55112e-17
570 1 145.886 19.0989 -5.55112e-17
571 1 142.261 124.643 -5.55112e-17
572 1 155.271 85.7669 -5.55112e-17
573 1 71.6855 91.5436 -5.55112e-17
574 1 180.066 133.448 -5.55112e-17
575 1 175.198 5.14908 -5.55112e-17
576 1 198.803 122.426 -5.55112e-17
577 1 105.575 125.831 -5.55112e-17
578 1 147.276 175.861 -5.55112e-17
579 1 48.8664 46.8312 -5.55112e-17
580 1 15.1224 58.7933 -5.55112e-17
581 1 199.749 132.693 -5.55112e-17
582 1 12.4835 204.047 -5.55112e-17
583 1 94.5391 209.809 -5.55112e-17
584 2 14.1834 24.2191 -5.55112e-17
585 1 88.7232 107.388 -5.55112e-17
586 1 121.976 25.5425 -5.55112e-17
587 1 83.2099 208.713 -5.55112e-17
588 1 5.26002 147.059 -5.55112e-17
589 1 177.264 27.5911 -5.55112e-17
590 1 18.5115 2.43028 -5.55112e-17
591 1 66.498 172.242 -5.55112e-17
592 1 105.944 82.9347 -5.55112e-17
593 1 110.044 20.3026 -5.55112e-17
594 1 179.524 116.411 -5.55112e-17
595 1 48.935 71.1396 -5.55112e-17
596 1 88.7817 66.4771 -5.55112e-17
597 2 114.61 129.921 -5.55112e-17
598 1 201.497 134.334 -5.55112e-17
599 1 198.038 151.742 -5.55112e-17
600 1 134.691 51.3283 -5.55112e-17
601 1 207.067 101.177 -5.55112e-17
602 1 211.391 163.401 -5.55112e-17
603 1 138.138 143.545 -5.55112e-17
604 1 191.94 172.244 -5.55112e-17
605 2 112.065 172.639 -5.55112e-17
606 1 138.025 213.221 -5.55112e-17
607 2 20.8179 4.46901 -5.55112e-17
608 1 204.255 100.561 -5.55112e-17
609 1 175.18 166.863 -5.55112e-17
610 1 130.26 149.582 -5.55112e-17
611 1 58.1661 164.582 -5.55112e-17
612 1 187.72 24.8641 -5.55112e-17
613 1 30.0735 18.0039 -5.55112e-17
614 2 40.6121 185.98 -5.55112e-17
615 1 113.701 115.241 -5.55112e-17
616 1 35.443 110.109 -5.55112e-17
617 1 28.7745 207.64 -5.55112e-17
618 1 215.231 191.867 -5.55112e-17
619 1 66.8974 56.2482 -5.55112e-17
620 1 73.6577 56.1769 -5.55112e-17
621 1 129.469 92.4438 -5.55112e-17
622 1 196.923 24.9243 -5.55112e-17
623 1 177.001 19.2036 -5.55112e-17
624 1 33.9632 36.8943 -5.55112e-17
625 1 5.12459 153.739 -5.55112e-17
626 1 109.03 0.311306 -5.55112e-17
627 1 202.661 93.1575 -5.55112e-17
628 1 194.747 24.011 -5.55112e-17
629 1 114.698 120.185 -5.55112e-17
630 2 93.3899 202.832 -5.55112e-17
631 1 178.906 148.33 -5.55112e-17
632 1 194.903 15.8073 -5.55112e-17
633 1 213.589 187.16 -5.55112e-17
634 1 124.83 138.824 -5.55112e-17
635 1 17.1792 114.041 -5.55112e-17
636 1 139.088 49.2137 -5.55112e-17
637 1 184.626 34.0283 -5.55112e-17
638 1 197.445 144.257 -5.55112e-17
639 2 111.431 60.7535 -5.55112e-17
640 1 210.57 65.4063 -5.55112e-17
641 1 98.4409 207.027 -5.55112e-17
642 1 159.348 10.1274 -5.55112e-17
643 2 37.9771 108.78 -5.55112e-17
644 1 201.381 107.713 -5.55112e-17
645 1 189.285 77.0389 -5.55112e-17
646 2 43.836 135.781 -5.55112e-17
647 1 76.1833 216.568 -5.55112e-17
648 1 94.1509 67.822 -5.55112e-17
649 2 156.443 163.471 -5.55112e-17
650 1 121.106 66.6827 -5.55112e-17
651 1 56.4551 50.0984 -5.55112e-17
652 1 148.423 172.725 -5.55112e-17
653 1 52.5689 65.1911 -5.55112e-17
654 1 1.50891 217.176 -5.55112e-17
655 2 154.695 100.462 -5.55112e-17
656 1 87.7222 52.4314 -5.55112e-17
657 2 91.2614 86.3242 -5.55112e-17
658 1 143.186 55.7571 -5.55112e-17
659 2 154.656 52.4719 -5.55112e-17
660 1 155.524 133.429 -5.55112e-17
661 1 7.23462 152.401 -5.55112e-17
662 1 212.563 8.5696 -5.55112e-17
663 1 118.327 102.151 -5.55112e-17
664 1 163.444 115.539 -5.55112e-17
665 1 81.4657 176.38 -5.55112e-17
666 2 165.641 117.275 -5.55112e-17
667 1 81.4097 8.40563 -5.55112e-17
668 2 164.833 108.376 -5.55112e-17
669 1 209.389 73.0255 -5.55112e-17
670 1 217.865 217.063 -5.55112e-17
671 2 108.219 190.907 -5.55112e-17
672 1 2.78301 56.6509 -5.55112e-17
673 1 150.949 113.759 -5.55112e-17
674 1 73.2798 109.109 -5.55112e-17
675 1 176.347 208.167 -5.55112e-17
676 1 109.335 25.8526 -5.55112e-17
677 1 206.136 196.645 -5.55112e-17
678 1 114.245 8.33814 -5.55112e-17
679 2 67.574 204.586 -5.55112e-17
680 1 59.2476 97.0986 -5.55112e-17
681 2 42.8243 206.488 -5.55112e-17
682 1 173.878 136.327 -5.55112e-17
683 1 32.8515 215.82 -5.55112e-17
684 1 185.992 20.6012 -5.55112e-17
685 1 187.898 62.0268 -5.55112e-17
686 1 47.9846 192.604 -5.55112e-17
687 1 119.902 177.9 -5.55112e-17
688 1 188.87 207.178 -5.55112e-17
689 2 54.6614 83.0608 -5.55112e-17
690 1 105.289 198.132 -5.55112e-17
691 1 172.762 56.55 -5.55112e-17
692 1 148.385 155.205 -5.55112e-17
693 1 28.0947 127.364 -5.55112e-17
694 1 7.71357 42.6321 -5.55112e-17
695 1 183.663 201.182 -5.55112e-17
696 1 84.5513 179.634 -5.55112e-17
697 1 205.544 89.298 -5.55112e-17
698 1 25.1725 22.6203 -5.55112e-17
699 1 152.089 50.8841 -5.55112e-17
700 1 76.9387 154.631 -5.55112e-17
701 1 18.0909 14.7099 -5.55112e-17
702 1 123.634 32.85 -5.55112e-17
703 2 73.6629 73.3066 -5.55112e-17
704 1 78.9072 9.63013 -5.55112e-17
705 2 199.494 68.8227 -5.55112e-17
706 1 129.561 105.31 -5.55112e-17
707 1 112.398 138.698 -5.55112e-17
708 1 97.1669 169.595 -5.55112e-17
709 1 42.5945 75.2761 -5.55112e-17
710 1 143.632 209.131 -5.55112e-17
711 1 22.6114 120.52 -5.55112e-17
712 1 187.535 78.6016 -5.55112e-17
713 1 94.7322 169.127 -5.55112e-17
714 1 172.54 43.2178 -5.55112e-17
715 1 90.018 173.843 -5.55112e-17
716 1 90.2611 22.0546 -5.55112e-17
717 1 0.930077 143.656 -5.55112e-17
718 1 214.123 120.086 -5.55112e-17
719 2 76.7781 111.055 -5.55112e-17
720 1 113.404 77.4184 -5.55112e-17
721 1 176.505 93.5062 -5.55112e-17
722 1 17.051 65.7741 -5.55112e-17
723 2 212.668 42.974 -5.55112e-17
724 1 179.473 168.502 -5.55112e-17
725 1 152.212 4.19671 -5.55112e-17
726 1 197.126 14.4688 -5.55112e-17
727 1 108.321 178.136 -5.55112e-17
728 2 42.1972 191.809 -5.55112e-17
729 1 45.1752 140.873 -5.55112e-17
730 1 141.86 180.074 -5.55112e-17
731 1 202.776 79.6074 -5.55112e-17
732 1 133.755 109.861 -5.55112e-17
733 1 207.016 9.00748 -5.55112e-17
734 1 114.378 100.039 -5.55112e-17
735 1 57.9213 171.66 -5.55112e-17
736 2 100.806 187.834 -5.55112e-17
737 1 104.565 206.229 -5.55112e-17
738 1 160.726 169.651 -5.55112e-17
739 1 195.847 218.149 -5.55112e-17
740 1 32.8778 114.913 -5.55112e-17
741 2 17.2135 34.348 -5.55112e-17
742 1 200.13 197.723 -5.55112e-17
743 1 46.699 210.41 -5.55112e-17
744 2 146.224 79.4408 -5.55112e-17
745 1 73.0407 25.9964 -5.55112e-17
746 1 92.8633 197.863 -5.55112e-17
747 2 62.3386 104.233 -5.55112e-17
748 1 106.001 208.512 -5.55112e-17
749 1 142.258 64.9692 -5.55112e-17
750 1 14.8469 155.277 -5.55112e-17
751 1 113.96 55.5812 -5.55112e-17
752 1 141.309 175.051 -5.55112e-17
753 1 51.8559 67.7987 -5.55112e-17
754 1 3.93906 201.18 -5.55112e-17
755 1 46.4993 71.976 -5.55112e-17
756 2 23.9308 192.667 -5.55112e-17
757 1 175.384 145.451 -5.55112e-17
758 1 98.2517 181.853 -5.55112e-17
759 1 5.71661 211.384 -5.55112e-17
760 1 164.526 38.1152 -5.55112e-17
761 1 114.438 97.4357 -5.55112e-17
762 1 58.8109 35.0936 -5.55112e-17
763 1 84.271 94.8025 -5.55112e-17
764 2 38.3585 124.499 -5.55112e-17
765 1 126.265 205.877 -5.55112e-17
766 1 42.6015 11.5705 -5.55112e-17
767 1 70.0034 147.714 -5.55112e-17
768 1 171.013 50.3664 -5.55112e-17
769 1 6.41238 92.6817 -5.55112e-17
770 2 55.0129 67.011 -5.55112e-17
771 1 51.6293 29.9942 -5.55112e-17
772 1 31.0663 67.5011 -5.55112e-17
773 1 89.5438 45.0101 -5.55112e-17
774 1 126.159 165.055 -5.55112e-17
775 1 79.1583 89.7288 -5.55112e-17
776 1 113.449 112.188 -5.55112e-17
777 1 118.607 65.8122 -5.55112e-17
778 1 41.1985 85.228 -5.55112e-17
779 1 88.3723 175.805 -5.55112e-17
780 1 208.271 37.1145 -5.55112e-17
781 1 28.1466 68.391 -5.55112e-17
782 1 68.2589 74.052 -5.55112e-17
783 1 168.003 88.9156 -5.55112e-17
784 2 160.15 35.7461 -5.55112e-17
785 1 110.719 197.816 -5.55112e-17
786 1 59.8256 149.512 -5.55112e-17
787 1 169.812 68.6504 -5.55112e-17
788 1 181.066 73.7466 -5.55112e-17
789 2 18.9073 77.7256 -5.55112e-17
790 1 189.283 121.275 -5.55112e-17
791 2 126.68 185.715 -5.55112e-17
792 2 36.5954 88.9114 -5.55112e-17
793 2 137.393 171.623 -5.55112e-17
794 1 86.3434 8.20846 -5.55112e-17
795 1 62.0791 162.228 -5.55112e-17
796 1 107.671 182.86 -5.55112e-17
797 1 72.151 197.39 -5.55112e-17
798 2 105.55 140.397 -5.55112e-17
799 2 202.1 9.91047 -5.55112e-17
800 2 98.2488 54.6347 -5.55112e-17
801 1 196.079 38.4747 -5.55112e-17
802 1 103.842 124.197 -5.55112e-17
803 1 44.2075 189.582 -5.55112e-17
804 2 154.013 45.9468 -5.55112e-17
805 1 152.728 152.902 -5.55112e-17
806 1 21.7987 125.769 -5.55112e-17
807 2 185.645 17.5991 -5.55112e-17
808 1 114.274 194.911 -5.55112e-17
809 2 32.2195 175.409 -5.55112e-17
810 1 110.703 46.2994 -5.55112e-17
811 1 55.4511 171.399 -5.55112e-17
812 1 190.96 199.409 -5.55112e-17
813 2 216.16 106.478 -5.55112e-17
814 1 91.9202 95.875 -5.55112e-17
815 1 184.216 52.2531 -5.55112e-17
816 1 96.6733 37.255 -5.55112e-17
817 1 35.6118 42.0885 -5.55112e-17
818 1 215.45 143.887 -5.55112e-17
819 1 67.252 185.935 -5.55112e-17
820 1 81.6454 169.087 -5.55112e-17
821 1 55.6614 71.8898 -5.55112e-17
822 2 60.0613 131.334 -5.55112e-17
823 2 162.477 112.74 -5.55112e-17
824 1 50.058 11.7328 -5.55112e-17
825 1 33.0495 52.2465 -5.55112e-17
826 1 134.349 143.063 -5.55112e-17
827 1 77.1956 96.7411 -5.55112e-17
828 1 15.3519 14.5935 -5.55112e-17
829 1 62.8219 131.441 -5.55112e-17
830 1 187.572 144.664 -5.55112e-17
831 1 19.4756 138.497 -5.55112e-17
832 1 132.375 62.3158 -5.55112e-17
833 1 23.7966 73.8049 -5.55112e-17
834 1 205.641 36.7363 -5.55112e-17
835 1 214.26 145.998 -5.55112e-17
836 1 63.4571 120.85 -5.55112e-17
837 1 125.317 132.043 -5.55112e-17
838 1 85.708 102.446 -5.55112e-17
839 2 189.303 156.07 -5.55112e-17
840 1 125.993 68.638 -5.55112e-17
841 2 120.174 169.392 -5.55112e-17
842 1 75.8429 49.7045 -5.55112e-17
843 2 63.0848 16.5906 -5.55112e-17
844 1 10.975 121.119 -5.55112e-17
845 1 62.3085 23.4917 -5.55112e-17
846 1 97.2837 135.45 -5.55112e-17
847 1 136.243 152.983 -5.55112e-17
848 1 162.35 203.985 -5.55112e-17
849 1 167.698 35.9437 -5.55112e-17
850 1 65.3758 69.3868 -5.55112e-17
851 1 191.452 153.958 -5.55112e-17
852 1 83.347 167.415 -5.55112e-17
853 1 192.171 166.884 -5.55112e-17
854 1 84.8601 124.147 -5.55112e-17
855 1 169.07 9.71686 -5.55112e-17
856 1 185.647 195.654 -5.55112e-17