ITEM: TIMESTEP
0
ITEM: NUMBER OF ATOMS
7200
ITEM: BOX BOUNDS xy xz yz pp pp pp
0.0000000000000000e+00 2.1900000000000000e+02 0.0000000000000000e+00
0.0000000000000000e+00 2.1900000000000000e+02 0.0000000000000000e+00
-3.6499999999999999e-01 3.6499999999999999e-01 0.0000000000000000e+00
ITEM: ATOMS id type x y z
1 1 45.9867 90.2677 -5.55112e-17
2 1 112.225 190.596 -5.55112e-17
3 1 106.925 115.001 -5.55112e-17
4 1 141.846 68.1151 -5.55112e-17
5 1 179.098 120.09 -5.55112e-17
6 1 175.095 217.148 -5.55112e-17
7 1 177.003 42.7497 -5.55112e-17
8 2 113.507 27.1856 -5.55112e-17
9 1 175.18 118.573 -5.55112e-17
10 2 142.705 143.21 -5.55112e-17
11 1 23.6027 23.7389 -5.55112e-17
12 1 64.9318 73.336 -5.55112e-17
13 2 69.4883 90.0829 -5.55112e-17
14 1 187.789 216.464 -5.55112e-17
15 1 141.981 176.814 -5.55112e-17
16 2 123.813 164.131 -5.55112e-17
17 1 112.817 24.4232 -5.55112e-17
18 2 44.1507 28.1116 -5.55112e-17
19 1 124.581 89.9725 -5.55112e-17
20 1 25.1045 163.659 -5.55112e-17
21 1 178.814 16.6216 -5.55112e-17
22 2 59.653 49.7967 -5.55112e-17
23 2 79.7173 216.927 -5.55112e-17
24 1 65.3344 67.0182 -5.55112e-17
25 1 82.2419 185.537 -5.55112e-17
26 2 69.4228 55.2284 -5.55112e-17
27 1 3.69009 89.9794 -5.55112e-17
28 2 210.082 207.805 -5.55112e-17
29 1 57.3194 170.932 -5.55112e-17
30 1 13.4655 132.052 -5.55112e-17
31 1 34.2699 148.044 -5.55112e-17
32 1 89.6124 39.4127 -5.55112e-17
33 1 182.133 105.77 -5.55112e-17
34 1 127.716 179.058 -5.55112e-17
35 1 119.215 16.7732 -5.55112e-17
36 1 47.377 103.399 -5.55112e-17
37 2 45.023 71.1494 -5.55112e-17
38 1 78.4914 161.747 -5.55112e-17
39 1 34.9082 142.702 -5.55112e-17
40 1 152.118 8.37949 -5.55112e-17
41 1 172.386 89.4844 -5.55112e-17
42 1 110.927 112.622 -5.55112e-17
43 1 13.4059 156.446 -5.55112e-17
44 1 18.8583 90.5304 -5.55112e-17
45 1 84.6616 154.072 -5.55112e-17
46 1 99.7405 174.977 -5.55112e-17
47 1 190.937 57.0975 -5.55112e-17
48 2 37.0443 20.7069 -5.55112e-17
49 1 162.05 206.787 -5.55112e-17
50 1 173.823 64.6041 -5.55112e-17
51 1 195.24 77.93 -5.55112e-17
52 1 89.8397 31.3261 -5.55112e-17
53 1 153.75 114.591 -5.55112e-17
54 1 186.849 147.008 -5.55112e-17
55 1 135.16 27.3435 -5.55112e-17
56 1 102.593 196.73 -5.55112e-17
57 2 38.3517 132.816 -5.55112e-17
58 1 107.388 25.7908 -5.55112e-17
59 1 150.016 44.3983 -5.55112e-17
60 2 32.8714 68.1927 -5.55112e-17
61 2 45.9079 36.2735 -5.55112e-17
62 1 129.382 41.7322 -5.55112e-17
63 1 9.65389 80.1721 -5.55112e-17
64 1 207.598 147.533 -5.55112e-17
65 1 31.818 171.717 -5.55112e-17
66 1 135.896 112.082 -5.55112e-17
67 1 91.7924 108.739 -5.55112e-17
68 1 213.806 42.1927 -5.55112e-17
69 1 124.59 70.4617 -5.55112e-17
70 1 171.396 131.738 -5.55112e-17
71 1 179.489 83.4342 -5.55112e-17
72 1 202.193 70.5357 -5.55112e-17
73 1 160.686 68.1368 -5.55112e-17
74 1 75.3933 202.905 -5.55112e-17
75 2 74.2018 34.2622 -5.55112e-17
76 1 140.637 34.7301 -5.55112e-17
77 1 125.079 196.087 -5.55112e-17
78 1 173.649 158.432 -5.55112e-17
79 2 216.572 18.9799 -5.55112e-17
80 1 146.822 160.687 -5.55112e-17
81 1 136.393 101.007 -5.55112e-17
82 1 41.5773 215.688 -5.55112e-17
83 2 147.928 15.6175 -5.55112e-17
84 1 69.1144 26.8243 -5.55112e-17
85 1 206.785 156.803 -5.55112e-17
86 1 98.5676 190.84 -5.55112e-17
87 1 19.8816 153.43 -5.55112e-17
88 1 55.6151 62.3528 -5.55112e-17
89 2 170.665 121.42 -5.55112e-17
90 2 25.8965 207.708 -5.55112e-17
91 1 111.768 39.5042 -5.55112e-17
92 2 2.87775 133.039 -5.55112e-17
93 1 209.354 22.7821 -5.55112e-17
94 2 36.4411 204.075 -5.55112e-17
95 1 103.692 111.137 -5.55112e-17
96 1 128.487 129.448 -5.55112e-17
97 1 169.818 162.469 -5.55112e-17
98 1 108.724 45.4831 -5.55112e-17
99 1 203.841 38.1967 -5.55112e-17
100 1 204.661 35.652 -5.55112e-17
101 1 209.164 42.0908 -5.55112e-17
102 1 198.716 186.397 -5.55112e-17
103 1 9.2224 27.115 -5.55112e-17
104 1 51.5992 4.32802 -5.55112e-17
105 1 1.01899 55.1028 -5.55112e-17
106 1 158.23 76.3157 -5.55112e-17
107 2 117.79 108.793 -5.55112e-17
108 1 170.034 27.1227 -5.55112e-17
109 1 43.0983 43.5275 -5.55112e-17
110 1 33.9389 185.233 -5.55112e-17
111 1 168.503 134.516 -5.55112e-17
112 1 70.5822 81.7166 -5.55112e-17
113 1 105.234 191.234 -5.55112e-17
114 1 172.072 144.613 -5.55112e-17
115 1 84.7052 117.37 -5.55112e-17
116 2 94.3025 107.761 -5.55112e-17
117 1 127.298 11.5617 -5.55112e-17
118 1 149.162 164.371 -5.55112e-17
119 2 35.4419 108.723 -5.55112e-17
120 1 121.909 115.454 -5.55112e-17
121 1 160.505 185.571 -5.55112e-17
122 1 173.401 0.0591918 -5.55112e-17
123 1 109.524 178.404 -5.55112e-17
124 1 5.77672 32.717 -5.55112e-17
125 1 189 1.88625 -5.55112e-17
126 1 163.644 112.687 -5.55112e-17
127 1 156.655 72.1515 -5.55112e-17
128 1 3.01648 105.093 -5.55112e-17
129 1 83.6515 68.8886 -5.55112e-17
130 1 45.9934 23.1931 -5.55112e-17
131 1 42.0695 19.0185 -5.55112e-17
132 2 106.692 39.1556 -5.55112e-17
133 1 192.041 204.953 -5.55112e-17
134 1 203.004 126.061 -5.55112e-17
135 1 54.6373 40.5697 -5.55112e-17
136 1 217.141 207.006 -5.55112e-17
137 1 9.56706 100.592 -5.55112e-17
138 1 19.2517 0.0764145 -5.55112e-17
139 1 77.9553 181.126 -5.55112e-17
140 2 63.4165 198.218 -5.55112e-17
141 1 152.335 141.963 -5.55112e-17
142 2 22.7614 174.706 -5.55112e-17
143 1 176.47 33.9016 -5.55112e-17
144 2 101.118 143.537 -5.55112e-17
145 1 113.261 204.339 -5.55112e-17
146 1 191.552 101.611 -5.55112e-17
147 1 119.414 170.301 -5.55112e-17
148 1 174.78 106.22 -5.55112e-17
149 1 85.0613 67.2024 -5.55112e-17
150 1 97.1551 122.657 -5.55112e-17
151 1 214.078 14.451 -5.55112e-17
152 1 168.09 121.916 -5.55112e-17
153 2 136.704 30.6617 -5.55112e-17
154 1 176.2 5.36994 -5.55112e-17
155 1 111.034 96.7959 -5.55112e-17
156 2 71.2862 116.008 -5.55112e-17
157 1 158.171 22.7958 -5.55112e-17
158 1 55.9398 105.851 -5.55112e-17
159 1 152.634 189.222 -5.55112e-17
160 1 48.6709 152.412 -5.55112e-17
161 1 158.525 73.9366 -5.55112e-17
162 1 74.2165 178.341 -5.55112e-17
163 1 113.15 201.631 -5.55112e-17
164 1 98.0844 204.082 -5.55112e-17
165 1 109.526 127.422 -5.55112e-17
166 2 164.134 177.721 -5.55112e-17
167 1 211.465 70.4069 -5.55112e-17
168 1 111.749 67.3061 -5.55112e-17
169 1 4.16856 158.52 -5.55112e-17
170 1 43.2103 37.4123 -5.55112e-17
171 1 193.295 124.176 -5.55112e-17
172 1 173.599 202.522 -5.55112e-17
173 1 168.339 41.657 -5.55112e-17
174 1 183.409 165.241 -5.55112e-17
175 2 187.556 72.0207 -5.55112e-17
176 1 52.281 19.638 -5.55112e-17
177 2 160.114 84.0653 -5.55112e-17
178 1 196.425 208.003 -5.55112e-17
179 1 107.915 93.7198 -5.55112e-17
180 1 99.891 80.5561 -5.55112e-17
181 1 3.26523 87.2062 -5.55112e-17
182 2 76.7796 91.6344 -5.55112e-17
183 1 96.1912 57.0005 -5.55112e-17
184 1 59.0103 34.8615 -5.55112e-17
185 2 80.9516 213.718 -5.55112e-17
186 2 152.132 18.2053 -5.55112e-17
187 1 129.609 65.8762 -5.55112e-17
188 1 14.3226 200.276 -5.55112e-17
189 1 46.1275 156.843 -5.55112e-17
190 2 25.9368 199.735 -5.55112e-17
191 1 213.05 92.7628 -5.55112e-17
192 2 143.001 90.5044 -5.55112e-17
193 2 186.531 206.042 -5.55112e-17
194 1 134.947 51.501 -5.55112e-17
195 1 159.123 78.7917 -5.55112e-17
196 1 150.804 105.516 -5.55112e-17
197 1 124.975 53.4968 -5.55112e-17
198 2 76.3697 185.705 -5.55112e-17
199 1 23.5679 206.3 -5.55112e-17
200 1 129.018 115.533 -5.55112e-17
201 2 121.565 186.828 -5.55112e-17
202 1 82.7213 152.278 -5.55112e-17
203 1 60.7733 184.349 -5.55112e-17
204 1 25.2619 122.703 -5.55112e-17
205 2 106.32 123.209 -5.55112e-17
206 1 140.931 173.867 -5.55112e-17
207 1 176.371 140.624 -5.55112e-17
208 1 48.5881 149.866 -5.55112e-17
209 1 37.5306 141.146 -5.55112e-17
210 1 36.0695 88.3145 -5.55112e-17
211 2 172.055 200.252 -5.55112e-17
212 1 32.9111 212.544 -5.55112e-17
213 1 132.299 41.9517 -5.55112e-17
214 1 34.1375 179.512 -5.55112e-17
215 1 173.909 139.425 -5.55112e-17
216 1 104.585 97.5797 -5.55112e-17
217 1 189.863 141.598 -5.55112e-17
218 2 166.045 96.8589 -5.55112e-17
219 1 157.636 49.8489 -5.55112e-17
220 2 214.16 199.279 -5.55112e-17
221 1 152.917 99.4953 -5.55112e-17
222 1 46.7096 18.1841 -5.55112e-17
223 1 36.1448 76.7073 -5.55112e-17
224 2 68.2198 210.978 -5.55112e-17
225 1 124.748 122.23 -5.55112e-17
226 1 21.0584 44.5451 -5.55112e-17
227 2 27.1592 6.42005 -5.55112e-17
228 1 119.872 179.553 -5.55112e-17
229 1 70.9596 47.8916 -5.55112e-17
230 1 64.1026 181.094 -5.55112e-17
231 1 205.898 107.878 -5.55112e-17
232 1 140.102 204.274 -5.55112e-17
233 1 140.919 37.3098 -5.55112e-17
234 1 25.9248 174.221 -5.55112e-17
235 1 118.614 38.3157 -5.55112e-17
236 1 112.385 195.438 -5.55112e-17
237 1 13.7625 165.406 -5.55112e-17
238 1 75.1111 200.373 -5.55112e-17
239 2 189.066 32.5927 -5.55112e-17
240 1 150.672 210.477 -5.55112e-17
241 2 186.543 9.29395 -5.55112e-17
242 2 35.9917 162.99 -5.55112e-17
243 2 105.041 169.581 -5.55112e-17
244 1 142.436 171.9 -5.55112e-17
245 1 135.577 185.878 -5.55112e-17
246 1 216.457 9.61814 -5.55112e-17
247 1 93.8846 46.7772 -5.55112e-17
248 1 143.5 137.399 -5.55112e-17
249 1 24.7152 120.105 -5.55112e-17
250 2 27.7368 210.549 -5.55112e-17
251 1 154.793 19.4233 -5.55112e-17
252 1 95.0365 64.0464 -5.55112e-17
253 1 146.733 179.155 -5.55112e-17
254 2 18.9327 170.867 -5.55112e-17
255 1 92.4631 125.849 -5.55112e-17
256 1 34.6778 18.9975 -5.55112e-17
257 1 184.861 156.92 -5.55112e-17
258 2 186.145 211.735 -5.55112e-17
259 1 153.173 91.9737 -5.55112e-17
260 1 47.0052 87.9305 -5.55112e-17
261 1 47.7073 92.8754 -5.55112e-17
262 1 157.512 207.113 -5.55112e-17
263 1 212.764 81.7085 -5.55112e-17
264 1 44.3376 0.554097 -5.55112e-17
265 1 113.812 30.1816 -5.55112e-17
266 1 22.3333 99.6759 -5.55112e-17
267 1 113.099 150.12 -5.55112e-17
268 1 69.6439 40.9387 -5.55112e-17
269 1 83.0625 180.944 -5.55112e-17
270 1 47.4692 137.987 -5.55112e-17
271 1 27.4779 50.9647 -5.55112e-17
272 1 142.456 159.359 -5.55112e-17
273 1 198.286 67.2855 -5.55112e-17
274 2 62.9904 116.398 -5.55112e-17
275 1 109.818 147.756 -5.55112e-17
276 2 5.3864 189.051 -5.55112e-17
277 2 91.9232 84.5289 -5.55112e-17
278 1 152.991 156.464 -5.55112e-17
279 2 192.493 45.1391 -5.55112e-17
280 1 160.485 103.196 -5.55112e-17
281 1 190.774 117.209 -5.55112e-17
282 1 215.925 179.552 -5.55112e-17
283 1 123.428 72.8855 -5.55112e-17
284 1 195.023 6.01688 -5.55112e-17
285 1 82.4765 19.6323 -5.55112e-17
286 2 87.3861 80.7413 -5.55112e-17
287 1 2.73423 35.7611 -5.55112e-17
288 1 97.6 13.5972 -5.55112e-17
289 1 122.2 129.886 -5.55112e-17
290 1 150.399 46.9316 -5.55112e-17
291 1 133.649 0.582706 -5.55112e-17
292 2 113.976 83.0051 -5.55112e-17
293 2 214.67 146.69 -5.55112e-17
294 1 161.068 74.5502 -5.55112e-17
295 1 60.7056 52.233 -5.55112e-17
296 1 70.6042 29.3948 -5.55112e-17
297 1 7.6042 117.511 -5.55112e-17
298 1 186.908 173.061 -5.55112e-17
299 1 139.539 191.485 -5.55112e-17
300 2 98.9982 149.034 -5.55112e-17
301 1 124.338 21.1558 -5.55112e-17
302 1 6.09087 44.0338 -5.55112e-17
303 2 175.164 69.2506 -5.55112e-17
304 2 100.422 22.0262 -5.55112e-17
305 1 73.9025 100.558 -5.55112e-17
306 1 119.756 160.206 -5.55112e-17
307 1 203.718 72.5806 -5.55112e-17
308 1 29.6937 147.77 -5.55112e-17
309 2 216.851 55.8472 -5.55112e-17
310 1 181.812 158.186 -5.55112e-17
311 1 84.4515 79.7832 -5.55112e-17
312 1 95.7108 149.073 -5.55112e-17
313 2 107.666 188.969 -5.55112e-17
314 1 150.177 5.80056 -5.55112e-17
315 1 61.4515 181.617 -5.55112e-17
316 1 94.1579 88.9712 -5.55112e-17
317 1 138.03 209.091 -5.55112e-17
318 1 139.71 152.605 -5.55112e-17
319 1 134.986 94.0716 -5.55112e-17
320 1 160.778 141.037 -5.55112e-17
321 1 154.094 132.126 -5.55112e-17
322 1 143.942 134.715 -5.55112e-17
323 1 125.121 146.251 -5.55112e-17
324 1 188.918 115.856 -5.55112e-17
325 1 2.17033 120.833 -5.55112e-17
326 1 151.102 196.06 -5.55112e-17
327 2 188.692 74.8449 -5.55112e-17
328 1 206.243 204.663 -5.55112e-17
329 2 178.75 212.708 -5.55112e-17
330 1 172.012 204.293 -5.55112e-17
331 1 138.354 142.67 -5.55112e-17
332 2 77.1177 86.4949 -5.55112e-17
333 1 199.32 131.846 -5.55112e-17
334 1 81.0213 17.3089 -5.55112e-17
335 1 115.065 4.32007 -5.55112e-17
336 1 137.186 176.459 -5.55112e-17
337 1 60.2789 149.823 -5.55112e-17
338 1 193.858 147.766 -5.55112e-17
339 1 210.958 77.354 -5.55112e-17
340 1 211.715 205.227 -5.55112e-17
341 1 164.499 12.4193 -5.55112e-17
342 1 79.6109 199.156 -5.55112e-17
343 1 210.272 150.437 -5.55112e-17
344 1 160.575 192.222 -5.55112e-17
345 1 146.887 207.587 -5.55112e-17
346 1 125.856 189.495 -5.55112e-17
347 1 36.4069 0.627186 -5.55112e-17
348 1 161.703 171.181 -5.55112e-17
349 1 47.7273 0.332679 -5.55112e-17
350 2 113.735 104.478 -5.55112e-17
351 1 208.734 17.7175 -5.55112e-17
352 1 94.9468 80.0357 -5.55112e-17
353 1 144.692 20.3302 -5.55112e-17
354 1 110.114 120.251 -5.55112e-17
355 1 193.5 93.8267 -5.55112e-17
356 1 179.964 198.992 -5.55112e-17
357 1 178.792 134.063 -5.55112e-17
358 1 60.2893 104.399 -5.55112e-17
359 1 128.314 39.2294 -5.55112e-17
360 1 134.158 171.51 -5.55112e-17
361 1 199.752 18.2197 -5.55112e-17
362 1 166.222 111.626 -5.55112e-17
363 1 134.076 12.9079 -5.55112e-17
364 2 67.031 17.932 -5.55112e-17
365 1 93.8408 36.2155 -5.55112e-17
366 1 23.9189 189.411 -5.55112e-17
367 1 154.38 56.84 -5.55112e-17
368 1 166.713 206.409 -5.55112e-17
369 2 125.81 33.2632 -5.55112e-17
370 1 171.193 47.8345 -5.55112e-17
371 1 105.078 141.034 -5.55112e-17
372 2 41.2212 162.302 -5.55112e-17
373 2 154.925 49.5271 -5.55112e-17
374 1 142.451 84.2686 -5.55112e-17
375 1 102.281 206.827 -5.55112e-17
376 1 210.896 132.443 -5.55112e-17
377 1 163.404 40.7896 -5.55112e-17
378 1 169.26 200.803 -5.55112e-17
379 1 124.179 175.609 -5.55112e-17
380 1 17.212 2.11362 -5.55112e-17
381 1 194.897 218.754 -5.55112e-17
382 1 147.536 166.707 -5.55112e-17
383 1 148.09 124.067 -5.55112e-17
384 1 203.657 14.9052 -5.55112e-17
385 1 186.935 114 -5.55112e-17
386 2 29.0073 24.1633 -5.55112e-17
387 1 32.7816 6.73829 -5.55112e-17
388 1 30.1343 137.212 -5.55112e-17
389 1 178.813 20.7983 -5.55112e-17
390 2 16.1254 108.023 -5.55112e-17
391 2 112.575 91.4132 -5.55112e-17
392 1 150.957 212.91 -5.55112e-17
393 1 169.247 31.6665 -5.55112e-17
394 1 58.0781 21.8609 -5.55112e-17
395 1 166.845 85.4098 -5.55112e-17
396 1 181.649 85.2585 -5.55112e-17
397 1 130.822 117.254 -5.55112e-17
398 1 208.131 66.8635 -5.55112e-17
399 1 167.362 27.0458 -5.55112e-17
400 1 41.8963 35.3368 -5.55112e-17
401 1 53.5658 164.396 -5.55112e-17
402 2 99.339 152.978 -5.55112e-17
403 1 136.957 130.225 -5.55112e-17
404 1 111.06 124.908 -5.55112e-17
405 1 49.5098 87.8951 -5.55112e-17
406 1 37.7921 176.093 -5.55112e-17
407 2 51.7629 55.752 -5.55112e-17
408 1 62.8899 143.583 -5.55112e-17
409 1 81.7948 110.14 -5.55112e-17
410 1 40.9111 90.2994 -5.55112e-17
411 1 72.2028 91.3691 -5.55112e-17
412 1 211.996 157.839 -5.55112e-17
413 1 33.1866 140.795 -5.55112e-17
414 1 191.962 182.241 -5.55112e-17
415 1 150.414 69.4813 -5.55112e-17
416 1 59.6569 16.7679 -5.55112e-17
417 1 186.596 46.976 -5.55112e-17
418 2 9.82033 152.77 -5.55112e-17
419 1 57.3949 80.7782 -5.55112e-17
420 2 96.6006 46.2792 -5.55112e-17
421 1 126.352 150.413 -5.55112e-17
422 1 1.66828 180.706 -5.55112e-17
423 2 56.5516 49.3188 -5.55112e-17
424 1 5.11195 34.9285 -5.55112e-17
425 1 122.947 34.3607 -5.55112e-17
426 1 217.076 121.613 -5.55112e-17
427 1 196.606 188.087 -5.55112e-17
428 1 18.0536 48.5866 -5.55112e-17
429 1 172.891 153.926 -5.55112e-17
430 1 29.4503 119.307 -5.55112e-17
431 1 125.052 108.115 -5.55112e-17
432 1 214.897 190.687 -5.55112e-17
433 1 4.58453 217.685 -5.55112e-17
434 1 0.991487 28.7211 -5.55112e-17
435 1 56.1937 124.135 -5.55112e-17
436 1 25.712 32.7469 -5.55112e-17
437 1 155.855 214.555 -5.55112e-17
438 2 175.934 148.284 -5.55112e-17
439 1 111.248 29.659 -5.55112e-17
440 1 92.6616 67.9093 -5.55112e-17
441 1 93.2239 176.192 -5.55112e-17
442 1 121.176 3.12278 -5.55112e-17
443 1 52.2032 190.202 -5.55112e-17
444 1 190.125 11.1459 -5.55112e-17
445 1 49.1945 144.292 -5.55112e-17
446 1 207.197 174.252 -5.55112e-17
447 1 181.202 153.794 -5.55112e-17
448 1 79.3653 155.478 -5.55112e-17
449 1 157.587 83.0109 -5.55112e-17
450 1 31.7955 112.493 -5.55112e-17
451 1 135.583 140.37 -5.55112e-17
452 1 41.6256 197.275 -5.55112e-17
453 1 122.417 91.2755 -5.55112e-17
454 1 36.9447 143.879 -5.55112e-17
455 1 95.5026 193.716 -5.55112e-17
456 1 204.55 60.7536 -5.55112e-17
457 1 144.437 191.944 -5.55112e-17
458 1 45.5989 196.24 -5.55112e-17
459 1 115.95 73.2807 -5.55112e-17
460 1 142.838 109.364 -5.55112e-17
461 1 5.94721 179.043 -5.55112e-17
462 1 7.32163 10.8873 -5.55112e-17
463 1 64.649 41.1554 -5.55112e-17
464 1 63.0944 136.382 -5.55112e-17
465 1 97.958 132.806 -5.55112e-17
466 1 1.66771 72.3647 -5.55112e-17
467 1 193.852 138.316 -5.55112e-17
468 1 0.331535 173.487 -5.55112e-17
469 1 109.825 208.024 -5.55112e-17
470 1 88.2323 148.32 -5.55112e-17
471 1 133.192 24.9667 -5.55112e-17
472 1 9.8753 206.415 -5.55112e-17
473 1 197.969 162.005 -5.55112e-17
474 1 144.662 170.851 -5.55112e-17
475 1 56.3439 3.29585 -5.55112e-17
476 2 28.5674 90.3154 -5.55112e-17
477 1 190.971 30.4452 -5.55112e-17
478 1 15.8159 119.465 -5.55112e-17
479 1 175.261 153.043 -5.55112e-17
480 1 45.0945 210.39 -5.55112e-17
481 1 66.78 216.043 -5.55112e-17
482 1 72.2021 165.936 -5.55112e-17
483 1 177.266 198.558 -5.55112e-17
484 2 11.3749 43.1767 -5.55112e-17
485 1 17.3214 172.836 -5.55112e-17
486 1 174.47 80.7027 -5.55112e-17
487 1 136.922 77.7537 -5.55112e-17
488 1 97.3313 146.87 -5.55112e-17
489 1 205.862 138.396 -5.55112e-17
490 1 40.4249 212.747 -5.55112e-17
491 1 114.698 68.5646 -5.55112e-17
492 1 101.28 35.3295 -5.55112e-17
493 1 74.6882 112.279 -5.55112e-17
494 1 128.552 153.282 -5.55112e-17
495 1 58.2316 78.0134 -5.55112e-17
496 2 155.613 99.5427 -5.55112e-17
497 1 62.6614 154.587 -5.55112e-17
498 1 1.00399 31.548 -5.55112e-17
499 2 17.5874 121.964 -5.55112e-17
500 1 108.89 66.9183 -5.55112e-17
501 2 86.9106 114.564 -5.55112e-17
502 2 22.451 14.4321 -5.55112e-17
503 1 125.888 173.515 -5.55112e-17
504 1 198.832 101.447 -5.55112e-17
505 1 179.413 190.985 -5.55112e-17
506 1 9.70765 16.5144 -5.55112e-17
507 1 99.0781 35.7609 -5.55112e-17
508 1 21.9775 191.978 -5.55112e-17
509 2 115.314 194.87 -5.55112e-17
510 2 139.887 157.874 -5.55112e-17
511 1 28.5139 213.584 -5.55112e-17
512 2 196.997 99.5204 -5.55112e-17
513 1 208.538 116.511 -5.55112e-17
514 1 158.406 70.1571 -5.55112e-17
515 1 94.0142 94.2159 -5.55112e-17
516 1 173.926 23.295 -5.55112e-17
517 1 153.502 202.791 -5.55112e-17
518 2 54.0651 145.757 -5.55112e-17
519 1 197.135 72.7286 -5.55112e-17
520 2 47.7158 100.603 -5.55112e-17
521 1 55.6988 119.645 -5.55112e-17
522 1 31.4701 168.834 -5.55112e-17
523 1 199.64 118.904 -5.55112e-17
524 1 24.4395 16.586 -5.55112e-17
525 1 90.1169 122.025 -5.55112e-17
526 1 26.9722 202.675 -5.55112e-17
527 1 75.9082 29.458 -5.55112e-17
528 1 42.4142 84.9307 -5.55112e-17
529 1 51.3443 14.5864 -5.55112e-17
530 1 186.802 58.9509 -5.55112e-17
531 1 120.569 87.0133 -5.55112e-17
532 1 141.87 125.795 -5.55112e-17
533 1 76.5968 58.3677 -5.55112e-17
534 1 105.436 9.10395 -5.55112e-17
535 1 0.703863 199.188 -5.55112e-17
536 1 46.3618 135.682 -5.55112e-17
537 1 117.268 200.486 -5.55112e-17
538 1 51.45 202.431 -5.55112e-17
539 1 187.818 131.637 -5.55112e-17
540 1 117.278 146.538 -5.55112e-17
541 1 61.1757 114.229 -5.55112e-17
542 1 16.496 89.423 -5.55112e-17
543 1 27.7299 115.304 -5.55112e-17
544 1 56.8938 138.423 -5.55112e-17
545 1 143.269 53.4578 -5.55112e-17
546 1 56.639 197.45 -5.55112e-17
547 1 120.958 212.169 -5.55112e-17
548 1 206.515 103.255 -5.55112e-17
549 1 26.9025 97.2287 -5.55112e-17
550 2 44.7059 93.2227 -5.55112e-17
551 2 75.1214 1.82459 -5.55112e-17
552 2 82.8306 192.956 -5.55112e-17
553 1 154.121 97.1966 -5.55112e-17
554 1 85.5638 181.305 -5.55112e-17
555 2 138.027 155.3 -5.55112e-17
556 1 89.5685 107.094 -5.55112e-17
557 1 141.192 60.6418 -5.55112e-17
558 1 202.638 55.6194 -5.55112e-17
559 1 139.468 68.8667 -5.55112e-17
560 1 41.6466 199.67 -5.55112e-17
561 1 85.3006 89.54 -5.55112e-17
562 1 214.271 123.385 -5.55112e-17
563 2 82.9894 87.4263 -5.55112e-17
564 1 195.298 146.131 -5.55112e-17
565 1 60.1598 61.4899 -5.55112e-17
566 1 58.585 202.345 -5.55112e-17
567 1 11.2399 37.661 -5.55112e-17
568 1 31.8667 149.728 -5.55112e-17
569 1 16.0501 61.7613 -5.55112e-17
570 1 154.082 66.7275 -5.55112e-17
571 1 126.576 187.036 -5.55112e-17
572 1 141.912 95.997 -5.55112e-17
573 1 171.992 216.457 -5.55112e-17
574 1 3.84899 111.723 -5.55112e-17
575 1 161.001 120.59 -5.55112e-17
576 1 41.8382 92.8608 -5.55112e-17
577 1 117.718 26.3866 -5.55112e-17
578 1 203.362 121.575 -5.55112e-17
579 1 106.217 46.5212 -5.55112e-17
580 1 21.0682 184.232 -5.55112e-17
581 1 78.1246 59.9669 -5.55112e-17
582 1 109.398 103.731 -5.55112e-17
583 1 190.033 159.188 -5.55112e-17
584 2 211.913 37.9909 -5.55112e-17
585 1 152.781 137.196 -5.55112e-17
586 1 121.873 149.057 -5.55112e-17
587 1 61.7394 216.441 -5.55112e-17
588 1 155.733 29.7943 -5.55112e-17
589 1 217.573 134.755 -5.55112e-17
590 1 197.458 130.326 -5.55112e-17
591 1 75.2675 154.271 -5.55112e-17
592 1 146.786 87.4301 -5.55112e-17
593 1 125.993 63.2742 -5.55112e-17
594 1 18.6559 65.6949 -5.55112e-17
595 1 136.291 12.1028 -5.55112e-17
596 1 168.225 191.032 -5.55112e-17
597 2 12.0881 180.421 -5.55112e-17
598 1 162.194 107.563 -5.55112e-17
599 1 106.592 99.9941 -5.55112e-17
600 1 205.038 54.0656 -5.55112e-17
601 1 171.817 24.9538 -5.55112e-17
602 1 140.713 201.637 -5.55112e-17
603 1 133.465 217.267 -5.55112e-17
604 1 87.2818 117.768 -5.55112e-17
605 2 94.7159 173.615 -5.55112e-17
606 1 26.0026 144.292 -5.55112e-17
607 2 137.553 46.6931 -5.55112e-17
608 1 190.951 122.547 -5.55112e-17
609 1 137.31 84.4077 -5.55112e-17
610 1 38.334 7.02648 -5.55112e-17
611 1 21.8374 40.567 -5.55112e-17
612 1 114.867 61.9681 -5.55112e-17
613 1 168.555 73.3424 -5.55112e-17
614 2 168.9 78.4966 -5.55112e-17
615 1 66.0973 179.838 -5.55112e-17
616 1 209.152 176.086 -5.55112e-17
617 1 90.4255 130.516 -5.55112e-17
618 1 82.5214 139.31 -5.55112e-17
619 1 31.9501 95.7308 -5.55112e-17
620 1 101.102 48.4214 -5.55112e-17
621 1 108.306 145.159 -5.55112e-17
622 1 25.3734 109.759 -5.55112e-17
623 1 196.513 54.7728 -5.55112e-17
624 1 62.7527 74.5847 -5.55112e-17
625 1 103.098 22.8631 -5.55112e-17
626 1 121.364 174.714 -5.55112e-17
627 1 184.755 114.665 -5.55112e-17
628 1 99.7358 8.18014 -5.55112e-17
629 1 42.1015 47.964 -5.55112e-17
630 2 19.0795 190.786 -5.55112e-17
631 1 199.546 71.6698 -5.55112e-17
632 1 31.7214 166.296 -5.55112e-17
633 1 90.2049 25.962 -5.55112e-17
634 1 152.891 74.6808 -5.55112e-17
635 1 142.315 203.442 -5.55112e-17
636 1 87.9982 90.3423 -5.55112e-17
637 1 114.925 146.362 -5.55112e-17
638 1 68.3033 214.178 -5.55112e-17
639 2 130.672 218.284 -5.55112e-17
640 1 196.776 15.0599 -5.55112e-17
641 1 115.893 35.5642 -5.55112e-17
642 1 205.095 105.449 -5.55112e-17
643 2 66.5734 35.8882 -5.55112e-17
644 1 175.954 135.408 -5.55112e-17
645 1 191.621 85.1197 -5.55112e-17
646 2 53.8705 137.795 -5.55112e-17
647 1 217.715 209.525 -5.55112e-17
648 1 0.657064 159.362 -5.55112e-17
649 2 46.9902 159.956 -5.55112e-17
650 1 128.385 59.0389 -5.55112e-17
651 1 102.239 212.503 -5.55112e-17
652 1 170.802 17.0412 -5.55112e-17
653 1 110.708 1.66284 -5.55112e-17
654 1 183.727 89.5052 -5.55112e-17
655 2 115.536 166.837 -5.55112e-17
656 1 121.224 49.9189 -5.55112e-17
657 2 146.905 57.1688 -5.55112e-17
658 1 29.0513 208.216 -5.55112e-17
659 2 102.077 129.916 -5.55112e-17
660 1 208.7 44.5127 -5.55112e-17
661 1 199.102 196.278 -5.55112e-17
662 1 131.444 115.118 -5.55112e-17
663 1 164.642 204.995 -5.55112e-17
664 1 30.6704 75.1565 -5.55112e-17
665 1 80.0376 102.047 -5.55112e-17
666 2 79.5889 112.463 -5.55112e-17
667 1 170.816 66.7747 -5.55112e-17
668 2 98.1754 27.3592 -5.55112e-17
669 1 183.004 68.2048 -5.55112e-17
670 1 164.147 43.451 -5.55112e-17
671 2 105.677 66.3154 -5.55112e-17
672 1 29.1576 202.81 -5.55112e-17
673 1 37.9702 196.004 -5.55112e-17
674 1 145.056 159.104 -5.55112e-17
675 1 171.72 4.31492 -5.55112e-17
676 1 197.602 106.997 -5.55112e-17
677 1 119.442 7.62047 -5.55112e-17
678 1 120.076 40.8258 -5.55112e-17
679 2 108.453 83.2758 -5.55112e-17
680 1 190.19 96.8966 -5.55112e-17
681 2 88.8792 177.048 -5.55112e-17
682 1 17.4241 80.1987 -5.55112e-17
683 1 45.3245 167.816 -5.55112e-17
684 1 132.082 18.177 -5.55112e-17
685 1 99.7933 202.231 -5.55112e-17
686 1 48.9959 29.3678 -5.55112e-17
687 1 23.5261 110.945 -5.55112e-17
688 1 67.0294 53.2415 -5.55112e-17
689 2 157.133 67.5705 -5.55112e-17
690 1 145.09 94.7892 -5.55112e-17
691 1 164.901 128.332 -5.55112e-17
692 1 51.327 172.466 -5.55112e-17
693 1 90.3904 202.106 -5.55112e-17
694 1 113.687 140.209 -5.55112e-17
695 1 146.309 41.5718 -5.55112e-17
696 1 72.3092 84.1217 -5.55112e-17
697 1 164.429 30.9953 -5.55112e-17
698 1 29.98 15.8532 -5.55112e-17
699 1 62.0984 163.647 -5.55112e-17
700 1 181.61 11.6225 -5.55112e-17
701 1 48.4815 22.4888 -5.55112e-17
702 1 162.36 211.894 -5.55112e-17
703 2 80.1677 35.9884 -5.55112e-17
704 1 116.349 30.6555 -5.55112e-17
705 2 137.968 206.2 -5.55112e-17
706 1 158.305 202.362 -5.55112e-17
707 1 212.636 151.328 -5.55112e-17
708 1 213.397 196.163 -5.55112e-17
709 1 192.363 217.518 -5.55112e-17
710 1 143.854 9.27009 -5.55112e-17
711 1 163.477 158.479 -5.55112e-17
712 1 9.55818 36.1161 -5.55112e-17
713 1 174.532 36.2664 -5.55112e-17
714 1 2.29119 137.637 -5.55112e-17
715 1 118.169 28.7202 -5.55112e-17
716 1 95.089 207.946 -5.55112e-17
717 1 126.232 1.66149 -5.55112e-17
718 1 199.097 8.51388 -5.55112e-17
719 2 44.9083 192.62 -5.55112e-17
720 1 151.022 185.072 -5.55112e-17
721 1 135.96 210.391 -5.55112e-17
722 1 57.7647 149.699 -5.55112e-17
723 2 148.432 217.698 -5.55112e-17
724 1 38.8302 169.239 -5.55112e-17
725 1 5.97403 41.7388 -5.55112e-17
726 1 47.306 38.5169 -5.55112e-17
727 1 130.039 7.03117 -5.55112e-17
728 2 11.5893 9.25021 -5.55112e-17
729 1 75.033 142.169 -5.55112e-17
730 1 202.221 143.709 -5.55112e-17
731 1 102.254 7.44608 -5.55112e-17
732 1 56.0422 30.3681 -5.55112e-17
733 1 115.465 172.866 -5.55112e-17
734 1 106.346 76.3524 -5.55112e-17
735 1 101.504 165.637 -5.55112e-17
736 2 10.9765 146.256 -5.55112e-17
737 1 118.893 103.342 -5.55112e-17
738 1 134.631 190.955 -5.55112e-17
739 1 186.899 193.816 -5.55112e-17
740 1 98.6362 85.035 -5.55112e-17
741 2 113.983 112.414 -5.55112e-17
742 1 108.021 173.713 -5.55112e-17
743 1 217.361 194.514 -5.55112e-17
744 2 109.522 4.43746 -5.55112e-17
745 1 92.6466 104.023 -5.55112e-17
746 1 50.0586 85.3305 -5.55112e-17
747 2 62.9676 68.3952 -5.55112e-17
748 1 184.571 182.657 -5.55112e-17
749 1 34.0441 60.6273 -5.55112e-17
750 1 2.72845 160.48 -5.55112e-17
751 1 69.0387 157.432 -5.55112e-17
752 1 210.293 215.882 -5.55112e-17
753 1 62.644 186.232 -5.55112e-17
754 1 159.432 65.6729 -5.55112e-17
755 1 155.644 201.152 -5.55112e-17
756 2 48.7695 108.49 -5.55112e-17
757 1 45.3853 62.74 -5.55112e-17
758 1 197.534 35.324 -5.55112e-17
759 1 125.673 161.808 -5.55112e-17
760 1 97.1043 151.138 -5.55112e-17
761 1 46.2113 29.9568 -5.55112e-17
762 1 44.5733 189.206 -5.55112e-17
763 1 49.9523 79.9963 -5.55112e-17
764 2 28.9276 189.235 -5.55112e-17
765 1 60.1779 39.9868 -5.55112e-17
766 1 61.5789 152.357 -5.55112e-17
767 1 115.854 28.0075 -5.55112e-17
768 1 99.3824 33.1402 -5.55112e-17
769 1 181.417 21.1472 -5.55112e-17
770 2 28.714 43.6773 -5.55112e-17
771 1 202.98 28.4872 -5.55112e-17
772 1 193.485 10.717 -5.55112e-17
773 1 155.187 102.617 -5.55112e-17
774 1 0.9543 2.53984 -5.55112e-17
775 1 87.9795 131.387 -5.55112e-17
776 1 192.415 155.182 -5.55112e-17
777 1 11.7712 78.7511 -5.55112e-17
778 1 148.49 39.7195 -5.55112e-17
779 1 149.997 128.395 -5.55112e-17
780 1 109.143 15.3858 -5.55112e-17
781 1 210 48.0232 -5.55112e-17
782 1 154.192 216.681 -5.55112e-17
783 1 68.8728 34.3529 -5.55112e-17
784 2 133.693 15.6567 -5.55112e-17
785 1 170.248 39.9567 -5.55112e-17
786 1 106.274 36.3746 -5.55112e-17
787 1 8.44195 84.7371 -5.55112e-17
788 1 207.793 209.479 -5.55112e-17
789 2 23.5005 30.4883 -5.55112e-17
790 1 88.8878 145.969 -5.55112e-17
791 2 25.4464 35.846 -5.55112e-17
792 2 70.9047 60.8378 -5.55112e-17
793 2 42.6252 80.0631 -5.55112e-17
794 1 206.707 180.175 -5.55112e-17
795 1 65.8055 46.0606 -5.55112e-17
796 1 8.78151 48.4593 -5.55112e-17
797 1 32.5848 57.6911 -5.55112e-17
798 2 201.305 13.2411 -5.55112e-17
799 2 199.926 33.9484 -5.55112e-17
800 2 95.3291 124.529 -5.55112e-17
801 1 184.505 194.038 -5.55112e-17
802 1 188.495 88.6406 -5.55112e-17
803 1 49.1088 201.468 -5.55112e-17
804 2 23.2579 194.397 -5.55112e-17
805 1 123.271 68.2652 -5.55112e-17
806 1 139.122 62.6988 -5.55112e-17
807 2 150.303 206.725 -5.55112e-17
808 1 92.6535 27.2087 -5.55112e-17
809 2 5.84817 48.7556 -5.55112e-17
810 1 172.19 34.9997 -5.55112e-17
811 1 75.6902 89.21 -5.55112e-17
812 1 138.863 25.5085 -5.55112e-17
813 2 80.732 59.8032 -5.55112e-17
814 1 107.453 91.2429 -5.55112e-17
815 1 176.692 215.368 -5.55112e-17
816 1 9.98996 194.2 -5.55112e-17
817 1 101.917 101.672 -5.55112e-17
818 1 60.5187 22.5374 -5.55112e-17
819 1 38.2983 125.531 -5.55112e-17
820 1 68.3621 116.745 -5.55112e-17
821 1 36.2925 98.1307 -5.55112e-17
822 2 44.0313 16.7596 -5.55112e-17
823 2 162.887 92.2406 -5.55112e-17
824 1 2.64493 21.2086 -5.55112e-17
825 1 165.375 198.81 -5.55112e-17
826 1 82.9243 10.7206 -5.55112e-17
827 1 166.576 123.949 -5.55112e-17
828 1 173.178 16.7167 -5.55112e-17
829 1 54.4697 195.848 -5.55112e-17
830 1 172.398 45.4121 -5.55112e-17
831 1 191.283 89.48 -5.55112e-17
832 1 95.1729 210.618 -5.55112e-17
833 1 56.003 131.44 -5.55112e-17
834 1 178.336 27.0111 -5.55112e-17
835 1 120.325 96.3319 -5.55112e-17
836 1 190.279 161.702 -5.55112e-17
837 1 0.222666 147.098 -5.55112e-17
838 1 212.649 136.531 -5.55112e-17
839 2 42.4317 139.019 -5.55112e-17
840 1 13.2473 123.979 -5.55112e-17
841 2 8.55173 63.0884 -5.55112e-17
842 1 27.2103 120.966 -5.55112e-17
843 2 193.141 184.777 -5.55112e-17
844 1 109.656 153.363 -5.55112e-17
845 1 211.406 155.572 -5.55112e-17
846 1 5.4176 105.577 -5.55112e-17
847 1 48.0752 34.2038 -5.55112e-17
848 1 57.3517 161.828 -5.55112e-17
849 1 201.379 147.794 -5.55112e-17
850 1 78.68 164.238 -5.55112e-17
851 1 8.46769 214.552 -5.55112e-17
852 1 110.594 205.779 -5.55112e-17
853 1 54.2556 107.475 -5.55112e-17
854 1 157.715 27.5489 -5.55112e-17
855 1 88.1198 202.458 -5.55112e-17
856 1 217.042 34.742 -5.55112e-17