ITEM: TIMESTEP
0
ITEM: NUMBER OF ATOMS
7200
ITEM: BOX BOUNDS xy xz yz pp pp pp
0.0000000000000000e+00 2.1900000000000000e+02 0.0000000000000000e+00
0.0000000000000000e+00 2.1900000000000000e+02 0.0000000000000000e+00
-3.6499999999999999e-01 3.6499999999999999e-01 0.0000000000000000e+00
ITEM: ATOMS id type x y z
1 1 117.359 5.49213 -5.55112e-17
2 1 153.377 180.978 -5.55112e-17
3 1 195.806 34.0678 -5.55112e-17
4 1 68.4774 92.6642 -5.55112e-17
5 1 49.5021 98.7264 -5.55112e-17
6 1 173.486 174.297 -5.55112e-17
7 1 11.9485 210.713 -5.55112e-17
8 2 147.674 150.706 -5.55112e-17
9 1 173.962 144.21 -5.55112e-17
10 2 56.3747 200.728 -5.55112e-17
11 1 130.292 51.9746 -5.55112e-17
12 1 37.3255 59.4942 -5.55112e-17
13 2 165.192 67.5142 -5.55112e-17
14 1 119.83 160.287 -5.55112e-17
15 1 216.622 102.369 -5.55112e-17
16 2 172.927 25.4926 -5.55112e-17
17 1 114.72 54.8615 -5.55112e-17
18 2 71.845 9.17739 -5.55112e-17
19 1 64.823 77.9565 -5.55112e-17
20 1 215.56 135.541 -5.55112e-17
21 1 60.1907 209.203 -5.55112e-17
22 2 59.4159 146.223 -5.55112e-17
23 2 185.84 13.7265 -5.55112e-17
24 1 205.286 208.606 -5.55112e-17
25 1 48.7164 6.27809 -5.55112e-17
26 2 45.6288 159.785 -5.55112e-17
27 1 209.883 88.8611 -5.55112e-17
28 2 81.4781 128.739 -5.55112e-17
29 1 190.616 163.78 -5.55112e-17
30 1 124.524 197.132 -5.55112e-17
31 1 4.87606 33.0429 -5.55112e-17
32 1 68.5721 217.849 -5.55112e-17
33 1 72.3739 163.036 -5.55112e-17
34 1 217.714 26.5681 -5.55112e-17
35 1 188.477 21.4288 -5.55112e-17
36 1 136.849 125.842 -5.55112e-17
37 2 177.355 34.7239 -5.55112e-17
38 1 194.525 184.903 -5.55112e-17
39 1 117.512 107.877 -5.55112e-17
40 1 200.367 202.039 -5.55112e-17
41 1 137.231 4.00892 -5.55112e-17
42 1 192.155 119.982 -5.55112e-17
43 1 42.0515 15.0711 -5.55112e-17
44 1 149.995 25.5111 -5.55112e-17
45 1 134.793 63.509 -5.55112e-17
46 1 7.01099 17.4043 -5.55112e-17
47 1 77.8579 1.45027 -5.55112e-17
48 2 170.582 17.791 -5.55112e-17
49 1 58.4228 5.49155 -5.55112e-17
50 1 103.289 153.505 -5.55112e-17
51 1 24.5521 40.3519 -5.55112e-17
52 1 163.462 138.414 -5.55112e-17
53 1 196.708 144.237 -5.55112e-17
54 1 141.42 164.425 -5.55112e-17
55 1 1.73924 117.328 -5.55112e-17
56 1 110.365 124.573 -5.55112e-17
57 2 130.608 23.413 -5.55112e-17
58 1 38.2933 156.08 -5.55112e-17
59 1 205.46 90.5021 -5.55112e-17
60 2 149.835 108.668 -5.55112e-17
61 2 215.598 111.825 -5.55112e-17
62 1 206.271 111.18 -5.55112e-17
63 1 163.478 28.2559 -5.55112e-17
64 1 140.094 205.6 -5.55112e-17
65 1 111.857 191.073 -5.55112e-17
66 1 14.4148 113.605 -5.55112e-17
67 1 148.154 96.8382 -5.55112e-17
68 1 60.1466 50.4552 -5.55112e-17
69 1 78.4398 215.914 -5.55112e-17
70 1 88.5567 88.0707 -5.55112e-17
71 1 200.125 171.909 -5.55112e-17
72 1 128.999 180.779 -5.55112e-17
73 1 84.4128 159.899 -5.55112e-17
74 1 17.524 86.5518 -5.55112e-17
75 2 125.098 65.4362 -5.55112e-17
76 1 104.539 62.4143 -5.55112e-17
77 1 174.585 129.282 -5.55112e-17
78 1 51.7649 90.3383 -5.55112e-17
79 2 215.298 57.2926 -5.55112e-17
80 1 43.0782 155.771 -5.55112e-17
81 1 156.918 89.7837 -5.55112e-17
82 1 80.9688 7.87912 -5.55112e-17
83 2 145.303 20.3858 -5.55112e-17
84 1 9.75121 50.0656 -5.55112e-17
85 1 213.372 155.812 -5.55112e-17
86 1 169.433 65.3781 -5.55112e-17
87 1 156.748 144.688 -5.55112e-17
88 1 181.893 177.836 -5.55112e-17
89 2 41.6806 70.7867 -5.55112e-17
90 2 44.4398 73.192 -5.55112e-17
91 1 162.813 133.857 -5.55112e-17
92 2 180.845 163.182 -5.55112e-17
93 1 33.3662 28.9977 -5.55112e-17
94 2 50.6618 21.6066 -5.55112e-17
95 1 204.365 52.5455 -5.55112e-17
96 1 169.393 79.0124 -5.55112e-17
97 1 51.5124 212.717 -5.55112e-17
98 1 121.561 46.5571 -5.55112e-17
99 1 69.0015 213.592 -5.55112e-17
100 1 61.4584 92.2049 -5.55112e-17
101 1 46.6196 83.5425 -5.55112e-17
102 1 207.057 94.5468 -5.55112e-17
103 1 6.23592 161.809 -5.55112e-17
104 1 193.515 68.4178 -5.55112e-17
105 1 162.686 66.0954 -5.55112e-17
106 1 98.3065 54.0944 -5.55112e-17
107 2 186.661 23.7517 -5.55112e-17
108 1 155.816 4.83436 -5.55112e-17
109 1 103.104 73.9976 -5.55112e-17
110 1 147.341 107.725 -5.55112e-17
111 1 212.293 51.3376 -5.55112e-17
112 1 139.191 127.117 -5.55112e-17
113 1 147.388 47.1759 -5.55112e-17
114 1 39.2018 208.652 -5.55112e-17
115 1 12.558 138.455 -5.55112e-17
116 2 186.081 166.985 -5.55112e-17
117 1 11.8194 98.1374 -5.55112e-17
118 1 39.8546 213.254 -5.55112e-17
119 2 100.181 47.5104 -5.55112e-17
120 1 189.394 46.0484 -5.55112e-17
121 1 185.083 218.503 -5.55112e-17
122 1 42.1174 102.361 -5.55112e-17
123 1 129.34 115.386 -5.55112e-17
124 1 177.031 208.783 -5.55112e-17
125 1 136.01 174.674 -5.55112e-17
126 1 53.1105 193.688 -5.55112e-17
127 1 47.0202 77.6755 -5.55112e-17
128 1 149.709 137.254 -5.55112e-17
129 1 210.978 152.056 -5.55112e-17
130 1 124.901 166.385 -5.55112e-17
131 1 212.469 19.2975 -5.55112e-17
132 2 180.032 208.165 -5.55112e-17
133 1 89.2747 148.271 -5.55112e-17
134 1 161.991 54.8716 -5.55112e-17
135 1 115.44 176.01 -5.55112e-17
136 1 67.1614 79.7469 -5.55112e-17
137 1 181.057 184.726 -5.55112e-17
138 1 146.099 65.8805 -5.55112e-17
139 1 184.215 115.493 -5.55112e-17
140 2 169.02 174.868 -5.55112e-17
141 1 105.115 130.803 -5.55112e-17
142 2 28.4543 117.837 -5.55112e-17
143 1 46.9846 143.349 -5.55112e-17
144 2 100.467 83.7795 -5.55112e-17
145 1 23.5506 160.136 -5.55112e-17
146 1 156.497 174.098 -5.55112e-17
147 1 133.065 162.301 -5.55112e-17
148 1 27.237 154.147 -5.55112e-17
149 1 33.4127 5.24022 -5.55112e-17
150 1 137.381 48.7265 -5.55112e-17
151 1 47.6548 155.059 -5.55112e-17
152 1 191.137 89.0905 -5.55112e-17
153 2 65.0029 171.504 -5.55112e-17
154 1 157.004 116.161 -5.55112e-17
155 1 124.578 78.9505 -5.55112e-17
156 2 22.2701 138.884 -5.55112e-17
157 1 28.026 96.3238 -5.55112e-17
158 1 137.484 44.4729 -5.55112e-17
159 1 167.959 115.929 -5.55112e-17
160 1 31.3883 208.734 -5.55112e-17
161 1 83.1525 155.794 -5.55112e-17
162 1 8.26055 141.77 -5.55112e-17
163 1 144.898 57.4401 -5.55112e-17
164 1 110.094 115.028 -5.55112e-17
165 1 40.9302 165.379 -5.55112e-17
166 2 174.227 51.2234 -5.55112e-17
167 1 156.303 181.424 -5.55112e-17
168 1 170.011 83.6436 -5.55112e-17
169 1 182.119 105.376 -5.55112e-17
170 1 81.8428 0.36236 -5.55112e-17
171 1 213.273 74.9202 -5.55112e-17
172 1 156.06 28.9725 -5.55112e-17
173 1 73.6405 181.887 -5.55112e-17
174 1 21.5108 102.358 -5.55112e-17
175 2 165.352 153.554 -5.55112e-17
176 1 5.20215 143.903 -5.55112e-17
177 2 217.265 51.196 -5.55112e-17
178 1 71.8541 37.0589 -5.55112e-17
179 1 190.69 91.7937 -5.55112e-17
180 1 218.466 75.3199 -5.55112e-17
181 1 14.6303 166.747 -5.55112e-17
182 2 20.9436 27.9413 -5.55112e-17
183 1 119.354 101.351 -5.55112e-17
184 1 16.8948 56.7187 -5.55112e-17
185 2 154.211 198.873 -5.55112e-17
186 2 126.32 134.903 -5.55112e-17
187 1 174.86 8.96478 -5.55112e-17
188 1 170.636 28.0433 -5.55112e-17
189 1 110.733 66.0819 -5.55112e-17
190 2 134.675 201.37 -5.55112e-17
191 1 53.8831 69.9232 -5.55112e-17
192 2 108.716 80.6779 -5.55112e-17
193 2 72.815 206.643 -5.55112e-17
194 1 132.427 126.416 -5.55112e-17
195 1 192.261 157.242 -5.55112e-17
196 1 19.35 34.4741 -5.55112e-17
197 1 70.2788 74.7756 -5.55112e-17
198 2 86.9007 130.113 -5.55112e-17
199 1 152.124 39.4092 -5.55112e-17
200 1 79.9679 200.513 -5.55112e-17
201 2 24.4131 57.9492 -5.55112e-17
202 1 165.026 123.391 -5.55112e-17
203 1 42.0003 111.691 -5.55112e-17
204 1 107.956 181.689 -5.55112e-17
205 2 1.23703 95.7387 -5.55112e-17
206 1 161.712 71.2003 -5.55112e-17
207 1 105.817 154.526 -5.55112e-17
208 1 130.047 141.475 -5.55112e-17
209 1 106.714 34.9492 -5.55112e-17
210 1 189.851 54.2517 -5.55112e-17
211 2 190.886 139.601 -5.55112e-17
212 1 85.4436 8.9327 -5.55112e-17
213 1 172.231 65.844 -5.55112e-17
214 1 137.355 76.6696 -5.55112e-17
215 1 149.436 7.20866 -5.55112e-17
216 1 97.1285 189.435 -5.55112e-17
217 1 53.9193 156.628 -5.55112e-17
218 2 154.169 111.342 -5.55112e-17
219 1 105.468 161.585 -5.55112e-17
220 2 74.0889 167.221 -5.55112e-17
221 1 17.0744 112.905 -5.55112e-17
222 1 162.609 39.9898 -5.55112e-17
223 1 202.862 187.736 -5.55112e-17
224 2 203.302 23.6139 -5.55112e-17
225 1 149.15 127.771 -5.55112e-17
226 1 195.104 178.664 -5.55112e-17
227 2 1.50054 197.396 -5.55112e-17
228 1 113.445 195.38 -5.55112e-17
229 1 74.5896 61.1871 -5.55112e-17
230 1 202.2 47.0219 -5.55112e-17
231 1 162.581 107.599 -5.55112e-17
232 1 188.342 196.898 -5.55112e-17
233 1 82.0473 176.562 -5.55112e-17
234 1 164.599 64.3997 -5.55112e-17
235 1 195.253 107.114 -5.55112e-17
236 1 210.782 21.1463 -5.55112e-17
237 1 25.6741 132.541 -5.55112e-17
238 1 97.4894 144.332 -5.55112e-17
239 2 14.4754 169.844 -5.55112e-17
240 1 156.836 99.6762 -5.55112e-17
241 2 63.5191 199.233 -5.55112e-17
242 2 208.209 13.1849 -5.55112e-17
243 2 103.574 22.4853 -5.55112e-17
244 1 17.8616 125.726 -5.55112e-17
245 1 112.251 180.005 -5.55112e-17
246 1 183.254 155.147 -5.55112e-17
247 1 178.865 100.361 -5.55112e-17
248 1 125.256 57.4625 -5.55112e-17
249 1 206.883 203.375 -5.55112e-17
250 2 31.5277 18.4627 -5.55112e-17
251 1 140.257 188.179 -5.55112e-17
252 1 203.011 209.784 -5.55112e-17
253 1 166.501 196.233 -5.55112e-17
254 2 159.063 152.363 -5.55112e-17
255 1 174.786 207.22 -5.55112e-17
256 1 132.002 69.231 -5.55112e-17
257 1 15.0914 200.531 -5.55112e-17
258 2 106.652 11.8824 -5.55112e-17
259 1 185.629 56.6021 -5.55112e-17
260 1 141.894 146.475 -5.55112e-17
261 1 148.157 164.824 -5.55112e-17
262 1 25.541 105.678 -5.55112e-17
263 1 8.04524 54.4887 -5.55112e-17
264 1 149.933 115.443 -5.55112e-17
265 1 136.551 20.6435 -5.55112e-17
266 1 144.99 35.7326 -5.55112e-17
267 1 145.433 161.464 -5.55112e-17
268 1 69.2179 8.59693 -5.55112e-17
269 1 34.1793 131.134 -5.55112e-17
270 1 82.9214 66.9775 -5.55112e-17
271 1 162.391 148.64 -5.55112e-17
272 1 200.818 148.685 -5.55112e-17
273 1 73.2621 77.9087 -5.55112e-17
274 2 106.315 147.222 -5.55112e-17
275 1 210.971 133.545 -5.55112e-17
276 2 23.045 31.2229 -5.55112e-17
277 2 137.597 79.3182 -5.55112e-17
278 1 99.3968 9.96537 -5.55112e-17
279 2 105.972 81.9792 -5.55112e-17
280 1 4.33138 2.63628 -5.55112e-17
281 1 130.488 6.70977 -5.55112e-17
282 1 107.53 186.44 -5.55112e-17
283 1 65.4868 153.599 -5.55112e-17
284 1 95.2055 198.88 -5.55112e-17
285 1 212.927 169.019 -5.55112e-17
286 2 164.003 146.178 -5.55112e-17
287 1 202.355 138.844 -5.55112e-17
288 1 182.104 53.5812 -5.55112e-17
289 1 91.3478 153.494 -5.55112e-17
290 1 13.6391 132.907 -5.55112e-17
291 1 83.4014 178.826 -5.55112e-17
292 2 64.7924 178.46 -5.55112e-17
293 2 201.565 118.629 -5.55112e-17
294 1 157.901 210.6 -5.55112e-17
295 1 135.638 61.0446 -5.55112e-17
296 1 13.9786 5.3644 -5.55112e-17
297 1 3.61749 155.374 -5.55112e-17
298 1 183.125 9.33028 -5.55112e-17
299 1 117.982 152.86 -5.55112e-17
300 2 42.5908 116.545 -5.55112e-17
301 1 141.098 15.2646 -5.55112e-17
302 1 134.242 164.391 -5.55112e-17
303 2 165.061 75.5084 -5.55112e-17
304 2 155.111 105.745 -5.55112e-17
305 1 132.11 200.308 -5.55112e-17
306 1 123.445 55.6489 -5.55112e-17
307 1 32.8612 120.4 -5.55112e-17
308 1 83.4393 56.1906 -5.55112e-17
309 2 134.885 172.095 -5.55112e-17
310 1 22.745 38.4824 -5.55112e-17
311 1 75.6234 106.543 -5.55112e-17
312 1 109.328 147.936 -5.55112e-17
313 2 167.342 205.713 -5.55112e-17
314 1 133.578 8.53306 -5.55112e-17
315 1 202.323 121.211 -5.55112e-17
316 1 167.462 218.06 -5.55112e-17
317 1 187.344 120.173 -5.55112e-17
318 1 151.26 154.315 -5.55112e-17
319 1 56.7152 197.738 -5.55112e-17
320 1 196.178 148.692 -5.55112e-17
321 1 211.112 91.4841 -5.55112e-17
322 1 79.5086 109.568 -5.55112e-17
323 1 23.2839 155.04 -5.55112e-17
324 1 127.718 55.9611 -5.55112e-17
325 1 149.074 198.186 -5.55112e-17
326 1 64.9397 65.6549 -5.55112e-17
327 2 174.537 76.7879 -5.55112e-17
328 1 115.357 218.156 -5.55112e-17
329 2 26.5715 50.3417 -5.55112e-17
330 1 183.511 140.223 -5.55112e-17
331 1 179.84 198.553 -5.55112e-17
332 2 164.532 48.3304 -5.55112e-17
333 1 36.8885 41.9653 -5.55112e-17
334 1 101.778 63.2391 -5.55112e-17
335 1 4.93416 214.158 -5.55112e-17
336 1 179.939 88.1513 -5.55112e-17
337 1 153.222 201.788 -5.55112e-17
338 1 172.462 37.656 -5.55112e-17
339 1 176.456 156.746 -5.55112e-17
340 1 184.381 91.229 -5.55112e-17
341 1 154.775 9.27812 -5.55112e-17
342 1 189.679 115.891 -5.55112e-17
343 1 10.7935 38.5364 -5.55112e-17
344 1 61.8072 24.4606 -5.55112e-17
345 1 64.1964 39.9277 -5.55112e-17
346 1 165.811 91.0821 -5.55112e-17
347 1 74.2332 38.6445 -5.55112e-17
348 1 133.075 6.04565 -5.55112e-17
349 1 13.6658 109.417 -5.55112e-17
350 2 116.722 185.42 -5.55112e-17
351 1 205.824 36.1621 -5.55112e-17
352 1 163.902 183.1 -5.55112e-17
353 1 99.4588 165.217 -5.55112e-17
354 1 179.909 205.233 -5.55112e-17
355 1 182.501 205.682 -5.55112e-17
356 1 216.753 128.569 -5.55112e-17
357 1 145.31 121.622 -5.55112e-17
358 1 43.8698 17.9512 -5.55112e-17
359 1 186.046 140.994 -5.55112e-17
360 1 5.04733 105.191 -5.55112e-17
361 1 152.712 0.0440953 -5.55112e-17
362 1 169.546 177.957 -5.55112e-17
363 1 197.952 35.3092 -5.55112e-17
364 2 3.40039 80.3556 -5.55112e-17
365 1 80.517 96.0279 -5.55112e-17
366 1 148.305 134.956 -5.55112e-17
367 1 29.0864 98.5892 -5.55112e-17
368 1 30.5857 65.9658 -5.55112e-17
369 2 42.2802 177.091 -5.55112e-17
370 1 117.33 147.66 -5.55112e-17
371 1 76.9553 204.874 -5.55112e-17
372 2 181.923 44.2005 -5.55112e-17
373 2 155.454 208.811 -5.55112e-17
374 1 147.532 80.7839 -5.55112e-17
375 1 107.168 202.816 -5.55112e-17
376 1 21.7316 185.081 -5.55112e-17
377 1 162.316 153.418 -5.55112e-17
378 1 78.476 118.489 -5.55112e-17
379 1 59.8806 36.9904 -5.55112e-17
380 1 143.027 192.535 -5.55112e-17
381 1 117.841 124.657 -5.55112e-17
382 1 83.2619 58.8254 -5.55112e-17
383 1 78.9819 91.7342 -5.55112e-17
384 1 71.3972 110.943 -5.55112e-17
385 1 82.3262 79.0768 -5.55112e-17
386 2 126.292 33.4389 -5.55112e-17
387 1 200.483 210.034 -5.55112e-17
388 1 43.1702 161.141 -5.55112e-17
389 1 103.666 40.8165 -5.55112e-17
390 2 173.815 171.515 -5.55112e-17
391 2 213.159 116.406 -5.55112e-17
392 1 121.359 218.248 -5.55112e-17
393 1 87.8571 135.322 -5.55112e-17
394 1 94.9189 95.5897 -5.55112e-17
395 1 23.522 19.5364 -5.55112e-17
396 1 90.3282 211.855 -5.55112e-17
397 1 199.05 217.607 -5.55112e-17
398 1 42.4339 39.9679 -5.55112e-17
399 1 156.339 14.3503 -5.55112e-17
400 1 75.4492 151.019 -5.55112e-17
401 1 70.1394 215.808 -5.55112e-17
402 2 21.8681 83.1816 -5.55112e-17
403 1 24.1978 136.73 -5.55112e-17
404 1 198.864 100.608 -5.55112e-17
405 1 133.155 167.095 -5.55112e-17
406 1 16.6479 48.8396 -5.55112e-17
407 2 204.891 3.86074 -5.55112e-17
408 1 86.4304 163.914 -5.55112e-17
409 1 58.0348 131.819 -5.55112e-17
410 1 84.2458 29.9966 -5.55112e-17
411 1 207.381 83.9533 -5.55112e-17
412 1 102.445 151.222 -5.55112e-17
413 1 54.4111 159.448 -5.55112e-17
414 1 67.4977 20.8126 -5.55112e-17
415 1 118.772 132.241 -5.55112e-17
416 1 23.0792 60.7609 -5.55112e-17
417 1 160.67 81.7662 -5.55112e-17
418 2 6.88669 27.4043 -5.55112e-17
419 1 102.131 204.385 -5.55112e-17
420 2 148.84 78.5001 -5.55112e-17
421 1 175.096 123.971 -5.55112e-17
422 1 156.448 193.923 -5.55112e-17
423 2 217.598 97.7596 -5.55112e-17
424 1 174.081 82.1215 -5.55112e-17
425 1 125.492 37.9905 -5.55112e-17
426 1 206.81 185.367 -5.55112e-17
427 1 154.375 31.1291 -5.55112e-17
428 1 8.39356 115.513 -5.55112e-17
429 1 116.701 115.931 -5.55112e-17
430 1 199.915 3.58954 -5.55112e-17
431 1 196.159 187.122 -5.55112e-17
432 1 78.8565 13.9466 -5.55112e-17
433 1 200.294 199.424 -5.55112e-17
434 1 84.3654 109.439 -5.55112e-17
435 1 148.14 190.579 -5.55112e-17
436 1 57.7592 45.216 -5.55112e-17
437 1 166.632 162.734 -5.55112e-17
438 2 97.824 117.387 -5.55112e-17
439 1 45.1353 26.2115 -5.55112e-17
440 1 200.572 35.6145 -5.55112e-17
441 1 142.493 122.441 -5.55112e-17
442 1 146.034 71.2122 -5.55112e-17
443 1 161.772 112.018 -5.55112e-17
444 1 133.06 93.899 -5.55112e-17
445 1 167.692 26.9936 -5.55112e-17
446 1 131.075 179.439 -5.55112e-17
447 1 46.0543 23.8823 -5.55112e-17
448 1 42.2672 0.178694 -5.55112e-17
449 1 121.551 12.1194 -5.55112e-17
450 1 30.9658 31.5643 -5.55112e-17
451 1 150.513 96.7699 -5.55112e-17
452 1 95.8801 207.605 -5.55112e-17
453 1 144.384 137.227 -5.55112e-17
454 1 5.89196 153.772 -5.55112e-17
455 1 192.183 192.499 -5.55112e-17
456 1 215.661 173.167 -5.55112e-17
457 1 67.4573 64.7223 -5.55112e-17
458 1 148.403 61.8036 -5.55112e-17
459 1 94.3616 25.5659 -5.55112e-17
460 1 125.322 15.2991 -5.55112e-17
461 1 90.551 168.945 -5.55112e-17
462 1 213.776 59.8892 -5.55112e-17
463 1 185.312 10.7853 -5.55112e-17
464 1 130.603 77.4899 -5.55112e-17
465 1 157.793 74.1113 -5.55112e-17
466 1 16.386 9.55669 -5.55112e-17
467 1 34.2585 176.794 -5.55112e-17
468 1 174.58 107.428 -5.55112e-17
469 1 97.2253 191.958 -5.55112e-17
470 1 93.4367 124.023 -5.55112e-17
471 1 207.966 182.932 -5.55112e-17
472 1 92.6187 31.5424 -5.55112e-17
473 1 116.709 209.169 -5.55112e-17
474 1 115.844 87.3676 -5.55112e-17
475 1 43.4077 94.8563 -5.55112e-17
476 2 34.4197 36.7639 -5.55112e-17
477 1 206.492 23.997 -5.55112e-17
478 1 218.051 124.346 -5.55112e-17
479 1 35.0065 135.551 -5.55112e-17
480 1 56.7585 40.8111 -5.55112e-17
481 1 217.814 116.487 -5.55112e-17
482 1 173.404 6.23864 -5.55112e-17
483 1 121.194 190.589 -5.55112e-17
484 2 56.9151 15.086 -5.55112e-17
485 1 218.008 154.972 -5.55112e-17
486 1 26.5983 55.9176 -5.55112e-17
487 1 58.9344 31.9546 -5.55112e-17
488 1 55.0557 88.1435 -5.55112e-17
489 1 189.501 28.9555 -5.55112e-17
490 1 68.3878 34.7543 -5.55112e-17
491 1 148.561 143.814 -5.55112e-17
492 1 94.0485 126.488 -5.55112e-17
493 1 136.188 191.53 -5.55112e-17
494 1 98.4685 20.8896 -5.55112e-17
495 1 96.1971 19.2992 -5.55112e-17
496 2 167.162 6.72288 -5.55112e-17
497 1 194.761 158.273 -5.55112e-17
498 1 40.8186 193.725 -5.55112e-17
499 2 110.096 52.6537 -5.55112e-17
500 1 199.681 178.974 -5.55112e-17
501 2 185.501 207.355 -5.55112e-17
502 2 83.2512 200.468 -5.55112e-17
503 1 155.43 128.416 -5.55112e-17
504 1 177.757 162.735 -5.55112e-17
505 1 66.0845 50.0802 -5.55112e-17
506 1 127.289 190.572 -5.55112e-17
507 1 74.2732 149.048 -5.55112e-17
508 1 182.03 199.714 -5.55112e-17
509 2 30.8761 125.071 -5.55112e-17
510 2 57.0949 158.015 -5.55112e-17
511 1 137.988 154.034 -5.55112e-17
512 2 80.7723 106.69 -5.55112e-17
513 1 66.5447 176.249 -5.55112e-17
514 1 26.9866 71.7521 -5.55112e-17
515 1 81.8881 29.8103 -5.55112e-17
516 1 15.534 134.845 -5.55112e-17
517 1 163.073 180.579 -5.55112e-17
518 2 144.961 179.388 -5.55112e-17
519 1 193.297 42.0609 -5.55112e-17
520 2 27.6877 77.407 -5.55112e-17
521 1 169.776 100.941 -5.55112e-17
522 1 45.4246 156.936 -5.55112e-17
523 1 27.8819 193.732 -5.55112e-17
524 1 214.641 7.16826 -5.55112e-17
525 1 39.682 169.277 -5.55112e-17
526 1 187.838 31.1378 -5.55112e-17
527 1 6.72618 20.3831 -5.55112e-17
528 1 107.05 84.5158 -5.55112e-17
529 1 74.4928 101.225 -5.55112e-17
530 1 86.8138 78.9083 -5.55112e-17
531 1 135.391 204.55 -5.55112e-17
532 1 209.074 214.24 -5.55112e-17
533 1 81.5241 114.426 -5.55112e-17
534 1 178.798 185.606 -5.55112e-17
535 1 164.207 176.613 -5.55112e-17
536 1 156.157 50.0909 -5.55112e-17
537 1 35.2178 198.675 -5.55112e-17
538 1 130.075 59.7856 -5.55112e-17
539 1 29.5622 36.5857 -5.55112e-17
540 1 148.813 200.664 -5.55112e-17
541 1 157.059 189.306 -5.55112e-17
542 1 91.8114 46.9378 -5.55112e-17
543 1 121.27 52.0762 -5.55112e-17
544 1 189.008 215.373 -5.55112e-17
545 1 6.45939 176.364 -5.55112e-17
546 1 184.312 150.878 -5.55112e-17
547 1 216.929 182.765 -5.55112e-17
548 1 12.2299 194.834 -5.55112e-17
549 1 19.6826 41.4226 -5.55112e-17
550 2 211.779 96.6052 -5.55112e-17
551 2 100.378 96.4251 -5.55112e-17
552 2 149.976 35.1249 -5.55112e-17
553 1 170.656 2.19933 -5.55112e-17
554 1 13.8052 90.8059 -5.55112e-17
555 2 16.2712 103.1 -5.55112e-17
556 1 121.538 43.7898 -5.55112e-17
557 1 74.2041 111.115 -5.55112e-17
558 1 158.381 19.14 -5.55112e-17
559 1 203.416 29.5285 -5.55112e-17
560 1 162.581 185.19 -5.55112e-17
561 1 7.32881 171.802 -5.55112e-17
562 1 194.557 2.27671 -5.55112e-17
563 2 203.49 148.278 -5.55112e-17
564 1 23.4408 192.378 -5.55112e-17
565 1 111.753 214.842 -5.55112e-17
566 1 19.5129 111.795 -5.55112e-17
567 1 122.67 80.183 -5.55112e-17
568 1 200.573 86.019 -5.55112e-17
569 1 13.0161 174.529 -5.55112e-17
570 1 96.0842 102.822 -5.55112e-17
571 1 179.934 137.128 -5.55112e-17
572 1 144.234 12.4172 -5.55112e-17
573 1 167.125 127.967 -5.55112e-17
574 1 147.894 162.531 -5.55112e-17
575 1 5.1227 66.6595 -5.55112e-17
576 1 147.177 116.383 -5.55112e-17
577 1 176.957 18.3386 -5.55112e-17
578 1 110.132 15.795 -5.55112e-17
579 1 17.7943 23.7826 -5.55112e-17
580 1 58.0847 20.1467 -5.55112e-17
581 1 31.3677 169.111 -5.55112e-17
582 1 177.329 198.786 -5.55112e-17
583 1 62.174 79.321 -5.55112e-17
584 2 195.2 44.1609 -5.55112e-17
585 1 218.61 126.966 -5.55112e-17
586 1 110.223 131.925 -5.55112e-17
587 1 145.066 193.778 -5.55112e-17
588 1 66.4027 144.217 -5.55112e-17
589 1 168.955 166.625 -5.55112e-17
590 1 110.923 33.9166 -5.55112e-17
591 1 141.676 151.475 -5.55112e-17
592 1 7.06677 47.019 -5.55112e-17
593 1 23.1851 162.808 -5.55112e-17
594 1 39.2686 188.25 -5.55112e-17
595 1 86.6608 101.004 -5.55112e-17
596 1 67.1865 2.17323 -5.55112e-17
597 2 42.0014 10.08 -5.55112e-17
598 1 26.1884 19.0927 -5.55112e-17
599 1 42.2009 211.692 -5.55112e-17
600 1 173.424 56.4139 -5.55112e-17
601 1 67.4938 146.402 -5.55112e-17
602 1 157.833 57.2003 -5.55112e-17
603 1 54.9585 107.216 -5.55112e-17
604 1 73.2243 186.16 -5.55112e-17
605 2 92.6279 157.829 -5.55112e-17
606 1 202.773 14.5513 -5.55112e-17
607 2 197.714 190.206 -5.55112e-17
608 1 172.248 178.796 -5.55112e-17
609 1 190.531 142.437 -5.55112e-17
610 1 183.399 161.891 -5.55112e-17
611 1 78.2689 156.126 -5.55112e-17
612 1 4.37909 10.3235 -5.55112e-17
613 1 149.802 141.694 -5.55112e-17
614 2 6.5482 194.657 -5.55112e-17
615 1 84.3491 191.483 -5.55112e-17
616 1 138.485 103.747 -5.55112e-17
617 1 56.8117 214.517 -5.55112e-17
618 1 170.737 193.805 -5.55112e-17
619 1 149.235 85.9391 -5.55112e-17
620 1 206.4 40.0499 -5.55112e-17
621 1 80.0626 79.7483 -5.55112e-17
622 1 96.2081 16.7509 -5.55112e-17
623 1 0.754394 182.387 -5.55112e-17
624 1 57.7506 179.178 -5.55112e-17
625 1 164.729 189.046 -5.55112e-17
626 1 53.1405 196.195 -5.55112e-17
627 1 117.121 140.769 -5.55112e-17
628 1 67.6779 14.3137 -5.55112e-17
629 1 199.813 47.3522 -5.55112e-17
630 2 108.429 97.4059 -5.55112e-17
631 1 47.0643 64.8097 -5.55112e-17
632 1 197.086 57.7266 -5.55112e-17
633 1 18.945 163.791 -5.55112e-17
634 1 193.531 180.716 -5.55112e-17
635 1 63.5895 203.118 -5.55112e-17
636 1 154.549 23.6694 -5.55112e-17
637 1 158.433 46.5201 -5.55112e-17
638 1 45.5932 62.9415 -5.55112e-17
639 2 35.8103 27.4528 -5.55112e-17
640 1 106.073 195.431 -5.55112e-17
641 1 137.146 138.661 -5.55112e-17
642 1 98.1823 18.0621 -5.55112e-17
643 2 170.041 203.235 -5.55112e-17
644 1 67.363 215.771 -5.55112e-17
645 1 53.0582 161.529 -5.55112e-17
646 2 205.909 72.0628 -5.55112e-17
647 1 182.425 36.951 -5.55112e-17
648 1 209.267 44.0303 -5.55112e-17
649 2 123.454 163.875 -5.55112e-17
650 1 212.414 89.0987 -5.55112e-17
651 1 213.867 215.78 -5.55112e-17
652 1 171.963 151.356 -5.55112e-17
653 1 8.39958 93.799 -5.55112e-17
654 1 200.964 191.12 -5.55112e-17
655 2 7.36006 119.227 -5.55112e-17
656 1 34.0374 165.217 -5.55112e-17
657 2 164.516 210.474 -5.55112e-17
658 1 19.4327 64.668 -5.55112e-17
659 2 173.063 105.003 -5.55112e-17
660 1 61.699 17.1034 -5.55112e-17
661 1 119.185 122.512 -5.55112e-17
662 1 86.0268 154.987 -5.55112e-17
663 1 100.22 42.8669 -5.55112e-17
664 1 109.068 35.5299 -5.55112e-17
665 1 132.904 85.8375 -5.55112e-17
666 2 117.955 24.5686 -5.55112e-17
667 1 132.706 148.21 -5.55112e-17
668 2 127.925 172.254 -5.55112e-17
669 1 88.3605 37.461 -5.55112e-17
670 1 111.468 209.76 -5.55112e-17
671 2 54.5794 164.524 -5.55112e-17
672 1 129.893 68.1291 -5.55112e-17
673 1 41.028 123.521 -5.55112e-17
674 1 20.7127 130.606 -5.55112e-17
675 1 181.93 216.327 -5.55112e-17
676 1 177.328 77.2543 -5.55112e-17
677 1 205.251 183.298 -5.55112e-17
678 1 177.195 176.152 -5.55112e-17
679 2 158.762 181.913 -5.55112e-17
680 1 37.0348 34.9822 -5.55112e-17
681 2 187.633 43.8768 -5.55112e-17
682 1 1.44017 168.48 -5.55112e-17
683 1 8.13387 165.805 -5.55112e-17
684 1 147.857 215.853 -5.55112e-17
685 1 130.093 62.7662 -5.55112e-17
686 1 95.3071 105.43 -5.55112e-17
687 1 213.321 166.588 -5.55112e-17
688 1 204.47 101.707 -5.55112e-17
689 2 61.6729 56.0097 -5.55112e-17
690 1 108.766 112.752 -5.55112e-17
691 1 43.8328 126.955 -5.55112e-17
692 1 101.552 170.749 -5.55112e-17
693 1 62.9956 76.2075 -5.55112e-17
694 1 13.855 217.155 -5.55112e-17
695 1 9.14843 58.8201 -5.55112e-17
696 1 117.202 174.041 -5.55112e-17
697 1 182.265 112.16 -5.55112e-17
698 1 111.2 127.178 -5.55112e-17
699 1 202.485 96.4558 -5.55112e-17
700 1 25.0946 173.466 -5.55112e-17
701 1 35.9219 107.456 -5.55112e-17
702 1 211.093 118.35 -5.55112e-17
703 2 15.5505 159.429 -5.55112e-17
704 1 151.6 197.587 -5.55112e-17
705 2 96.0462 210.404 -5.55112e-17
706 1 21.7462 135.981 -5.55112e-17
707 1 106.552 64.4403 -5.55112e-17
708 1 113.472 134.475 -5.55112e-17
709 1 47.3693 139.075 -5.55112e-17
710 1 59.7282 64.6757 -5.55112e-17
711 1 70.5077 186.233 -5.55112e-17
712 1 209.111 76.9929 -5.55112e-17
713 1 110.026 31.4339 -5.55112e-17
714 1 172.734 61.1881 -5.55112e-17
715 1 9.57278 8.07465 -5.55112e-17
716 1 84.2542 181.106 -5.55112e-17
717 1 107.025 159.57 -5.55112e-17
718 1 208.779 96.3275 -5.55112e-17
719 2 105.219 17.6183 -5.55112e-17
720 1 98.7614 70.3807 -5.55112e-17
721 1 179.741 144.825 -5.55112e-17
722 1 65.6128 89.2599 -5.55112e-17
723 2 5.29129 86.3497 -5.55112e-17
724 1 33.5632 172.667 -5.55112e-17
725 1 23.9057 218.88 -5.55112e-17
726 1 179.503 78.1044 -5.55112e-17
727 1 69.2447 168.989 -5.55112e-17
728 2 140.494 94.1326 -5.55112e-17
729 1 170.77 213.613 -5.55112e-17
730 1 78.7852 164.612 -5.55112e-17
731 1 93.2787 49.4596 -5.55112e-17
732 1 119.408 42.4565 -5.55112e-17
733 1 179.668 32.2537 -5.55112e-17
734 1 47.777 45.2944 -5.55112e-17
735 1 153.902 46.2491 -5.55112e-17
736 2 195.725 75.0972 -5.55112e-17
737 1 108.162 106.808 -5.55112e-17
738 1 204.275 136.224 -5.55112e-17
739 1 194.633 155.534 -5.55112e-17
740 1 37.9795 158.517 -5.55112e-17
741 2 206.975 18.4925 -5.55112e-17
742 1 24.7002 83.4224 -5.55112e-17
743 1 120.496 33.0118 -5.55112e-17
744 2 18.1653 79.2208 -5.55112e-17
745 1 96.7319 24.5198 -5.55112e-17
746 1 77.9108 195.952 -5.55112e-17
747 2 186.486 71.617 -5.55112e-17
748 1 148.627 27.821 -5.55112e-17
749 1 27.1204 184.944 -5.55112e-17
750 1 29.2723 170.675 -5.55112e-17
751 1 99.4324 67.8081 -5.55112e-17
752 1 184.71 171.926 -5.55112e-17
753 1 77.2785 188.711 -5.55112e-17
754 1 43.71 44.3971 -5.55112e-17
755 1 120.377 84.5416 -5.55112e-17
756 2 140.405 3.52396 -5.55112e-17
757 1 27.3562 2.8484 -5.55112e-17
758 1 20.9555 114.013 -5.55112e-17
759 1 167.663 160.182 -5.55112e-17
760 1 170.025 131.451 -5.55112e-17
761 1 62.2406 21.7777 -5.55112e-17
762 1 16.7944 53.6155 -5.55112e-17
763 1 213.962 124.896 -5.55112e-17
764 2 129.326 188.777 -5.55112e-17
765 1 203.265 55.0722 -5.55112e-17
766 1 47.2377 73.9453 -5.55112e-17
767 1 201.524 10.4497 -5.55112e-17
768 1 212.785 28.0493 -5.55112e-17
769 1 80.8105 134.554 -5.55112e-17
770 2 46.0145 114.326 -5.55112e-17
771 1 213.431 137.349 -5.55112e-17
772 1 99.7324 139.679 -5.55112e-17
773 1 71.4804 168.352 -5.55112e-17
774 1 160.776 86.8829 -5.55112e-17
775 1 169.56 211.607 -5.55112e-17
776 1 108.603 14.1083 -5.55112e-17
777 1 153.647 28.4594 -5.55112e-17
778 1 24.1887 210.294 -5.55112e-17
779 1 185.387 123.944 -5.55112e-17
780 1 140.222 134.881 -5.55112e-17
781 1 216.862 104.881 -5.55112e-17
782 1 14.5617 42.53 -5.55112e-17
783 1 96.8259 8.643 -5.55112e-17
784 2 146.259 118.98 -5.55112e-17
785 1 74.3651 188.649 -5.55112e-17
786 1 63.2017 153.444 -5.55112e-17
787 1 8.68278 2.20239 -5.55112e-17
788 1 103.276 95.9723 -5.55112e-17
789 2 12.991 63.1114 -5.55112e-17
790 1 88.4261 42.419 -5.55112e-17
791 2 146.874 185.649 -5.55112e-17
792 2 32.6341 89.2868 -5.55112e-17
793 2 114.404 158.814 -5.55112e-17
794 1 70.9344 70.0871 -5.55112e-17
795 1 160.607 200.772 -5.55112e-17
796 1 152.763 176.417 -5.55112e-17
797 1 134.023 156.102 -5.55112e-17
798 2 63.4042 45.6172 -5.55112e-17
799 2 18.0716 109.641 -5.55112e-17
800 2 127.319 41.7213 -5.55112e-17
801 1 187.199 47.0593 -5.55112e-17
802 1 76.7321 62.5796 -5.55112e-17
803 1 164.968 129.262 -5.55112e-17
804 2 106.008 164.502 -5.55112e-17
805 1 137.929 110.213 -5.55112e-17
806 1 59.5132 162.74 -5.55112e-17
807 2 187.593 199.558 -5.55112e-17
808 1 144.903 50.4358 -5.55112e-17
809 2 139.84 34.9397 -5.55112e-17
810 1 120.117 70.4532 -5.55112e-17
811 1 35.5449 44.5047 -5.55112e-17
812 1 190.977 206.682 -5.55112e-17
813 2 38.4985 205.701 -5.55112e-17
814 1 86.5336 110.756 -5.55112e-17
815 1 50.3394 207.599 -5.55112e-17
816 1 44.4261 41.6725 -5.55112e-17
817 1 211.447 139.177 -5.55112e-17
818 1 180.515 195.337 -5.55112e-17
819 1 109.203 172.428 -5.55112e-17
820 1 93.6805 29.2758 -5.55112e-17
821 1 87.1762 166.354 -5.55112e-17
822 2 30.6702 180.937 -5.55112e-17
823 2 214.116 82.2341 -5.55112e-17
824 1 116.043 95.181 -5.55112e-17
825 1 37.0331 13.5251 -5.55112e-17
826 1 22.5746 148.861 -5.55112e-17
827 1 9.11489 5.08982 -5.55112e-17
828 1 44.1473 209.974 -5.55112e-17
829 1 29.5619 39.6656 -5.55112e-17
830 1 12.5922 214.964 -5.55112e-17
831 1 197.078 154.143 -5.55112e-17
832 1 1.12376 57.1809 -5.55112e-17
833 1 194.377 63.9652 -5.55112e-17
834 1 88.6207 209.607 -5.55112e-17
835 1 45.4044 176.009 -5.55112e-17
836 1 214.426 52.4398 -5.55112e-17
837 1 27.7 87.8921 -5.55112e-17
838 1 41.0268 29.0692 -5.55112e-17
839 2 210.19 143.724 -5.55112e-17
840 1 85.1636 84.7162 -5.55112e-17
841 2 59.0117 42.577 -5.55112e-17
842 1 191.187 13.6165 -5.55112e-17
843 2 195.373 169.604 -5.55112e-17
844 1 9.80606 10.4945 -5.55112e-17
845 1 38.095 183.562 -5.55112e-17
846 1 141.955 66.0623 -5.55112e-17
847 1 203.728 181.007 -5.55112e-17
848 1 92.3325 65.7807 -5.55112e-17
849 1 165.548 120.567 -5.55112e-17
850 1 80.8021 174.181 -5.55112e-17
851 1 73.8621 84.9734 -5.55112e-17
852 1 84.7992 32.6359 -5.55112e-17
853 1 128.141 175.31 -5.55112e-17
854 1 93.1316 86.2482 -5.55112e-17
855 1 145.33 96.5693 -5.55112e-17
856 1 123.156 176.81 -5.55112e-17