ITEM: TIMESTEP
0
ITEM: NUMBER OF ATOMS
7200
ITEM: BOX BOUNDS xy xz yz pp pp pp
0.0000000000000000e+00 2.1900000000000000e+02 0.0000000000000000e+00
0.0000000000000000e+00 2.1900000000000000e+02 0.0000000000000000e+00
-3.6499999999999999e-01 3.6499999999999999e-01 0.0000000000000000e+00
ITEM: ATOMS id type x y z
1 1 107.559 34.2765 -5.55112e-17
2 1 129.905 207.811 -5.55112e-17
3 1 8.93636 4.77149 -5.55112e-17
4 1 68.7857 110.504 -5.55112e-17
5 1 29.7625 97.1798 -5.55112e-17
6 1 167.472 159.285 -5.55112e-17
7 1 18.6617 190.166 -5.55112e-17
8 2 158.881 149.511 -5.55112e-17
9 1 155.964 154.737 -5.55112e-17
10 2 69.4948 190.052 -5.55112e-17
11 1 123.674 56.6173 -5.55112e-17
12 1 60.5775 72.4659 -5.55112e-17
13 2 189.85 30.0464 -5.55112e-17
14 1 160.629 156.182 -5.55112e-17
15 1 205.658 82.5262 -5.55112e-17
16 2 199.234 15.7185 -5.55112e-17
17 1 109.905 64.5559 -5.55112e-17
18 2 82.3197 215.117 -5.55112e-17
19 1 80.2588 100.848 -5.55112e-17
20 1 197.957 150.973 -5.55112e-17
21 1 39.885 175.631 -5.55112e-17
22 2 57.477 134.882 -5.55112e-17
23 2 198.126 7.14393 -5.55112e-17
24 1 13.1424 166.738 -5.55112e-17
25 1 62.8101 194.037 -5.55112e-17
26 2 34.0359 135.524 -5.55112e-17
27 1 211.297 78.3778 -5.55112e-17
28 2 88.5112 167.678 -5.55112e-17
29 1 188.991 145.111 -5.55112e-17
30 1 114.163 192.706 -5.55112e-17
31 1 218.87 25.2631 -5.55112e-17
32 1 64.5243 205.948 -5.55112e-17
33 1 73.2745 171.266 -5.55112e-17
34 1 195.497 96.0185 -5.55112e-17
35 1 167.389 39.0109 -5.55112e-17
36 1 127.436 155.524 -5.55112e-17
37 2 168.65 218.14 -5.55112e-17
38 1 197.787 170.811 -5.55112e-17
39 1 122.969 145.277 -5.55112e-17
40 1 188.493 6.76932 -5.55112e-17
41 1 114.304 3.96102 -5.55112e-17
42 1 175.046 138.025 -5.55112e-17
43 1 67.6979 39.4647 -5.55112e-17
44 1 161.081 35.9503 -5.55112e-17
45 1 134.461 69.4196 -5.55112e-17
46 1 16.3498 26.1903 -5.55112e-17
47 1 87.2472 39.7268 -5.55112e-17
48 2 173.017 7.27783 -5.55112e-17
49 1 96.0406 198.53 -5.55112e-17
50 1 108.2 177.251 -5.55112e-17
51 1 29.9645 54.5812 -5.55112e-17
52 1 162.942 127.102 -5.55112e-17
53 1 210.455 157.821 -5.55112e-17
54 1 136.74 162.789 -5.55112e-17
55 1 19.8881 130.073 -5.55112e-17
56 1 111.189 159.204 -5.55112e-17
57 2 163.501 21.1468 -5.55112e-17
58 1 6.61099 138.212 -5.55112e-17
59 1 160.202 104.191 -5.55112e-17
60 2 159.942 109.698 -5.55112e-17
61 2 8.08312 107.006 -5.55112e-17
62 1 211.493 114.679 -5.55112e-17
63 1 167.444 20.741 -5.55112e-17
64 1 155.339 216.101 -5.55112e-17
65 1 110.852 200.128 -5.55112e-17
66 1 214.47 119.09 -5.55112e-17
67 1 155.881 71.9986 -5.55112e-17
68 1 72.1264 70.4566 -5.55112e-17
69 1 91.0376 24.9861 -5.55112e-17
70 1 87.6083 93.1935 -5.55112e-17
71 1 215.676 167.48 -5.55112e-17
72 1 119.02 193.492 -5.55112e-17
73 1 89.5934 183.991 -5.55112e-17
74 1 22.9006 23.8957 -5.55112e-17
75 2 130.773 66.4491 -5.55112e-17
76 1 120.633 81.385 -5.55112e-17
77 1 161.143 80.4136 -5.55112e-17
78 1 54.7312 74.413 -5.55112e-17
79 2 205.137 48.0783 -5.55112e-17
80 1 44.4073 151.758 -5.55112e-17
81 1 122.13 76.8744 -5.55112e-17
82 1 67.452 205.666 -5.55112e-17
83 2 168.975 23.0261 -5.55112e-17
84 1 204.057 72.9266 -5.55112e-17
85 1 3.7806 177.09 -5.55112e-17
86 1 171.557 80.9652 -5.55112e-17
87 1 156.62 147.156 -5.55112e-17
88 1 159.624 182.094 -5.55112e-17
89 2 20.614 81.8551 -5.55112e-17
90 2 39.2937 53.049 -5.55112e-17
91 1 146.45 166.042 -5.55112e-17
92 2 191.623 145.13 -5.55112e-17
93 1 19.3767 30.5503 -5.55112e-17
94 2 53.4278 18.1844 -5.55112e-17
95 1 212.472 44.2941 -5.55112e-17
96 1 205.968 40.9207 -5.55112e-17
97 1 64.4378 192.209 -5.55112e-17
98 1 121.925 58.3907 -5.55112e-17
99 1 74.2891 192.73 -5.55112e-17
100 1 50.4662 73.3659 -5.55112e-17
101 1 18.5251 76.4355 -5.55112e-17
102 1 215.271 95.2642 -5.55112e-17
103 1 23.6734 154.431 -5.55112e-17
104 1 155.519 58.757 -5.55112e-17
105 1 188.411 73.6983 -5.55112e-17
106 1 116.023 61.4024 -5.55112e-17
107 2 204.185 206.182 -5.55112e-17
108 1 179.684 12.068 -5.55112e-17
109 1 95.4999 53.9536 -5.55112e-17
110 1 143.155 107.305 -5.55112e-17
111 1 215.881 190.343 -5.55112e-17
112 1 128.067 136.463 -5.55112e-17
113 1 137.376 15.3432 -5.55112e-17
114 1 44.9756 206.037 -5.55112e-17
115 1 26.1947 130.792 -5.55112e-17
116 2 201.741 159.71 -5.55112e-17
117 1 216.276 132.861 -5.55112e-17
118 1 31.6393 11.1182 -5.55112e-17
119 2 131.431 42.7464 -5.55112e-17
120 1 206.129 10.7842 -5.55112e-17
121 1 152.373 30.0607 -5.55112e-17
122 1 15.6575 106.802 -5.55112e-17
123 1 140.579 130.787 -5.55112e-17
124 1 184.416 3.20325 -5.55112e-17
125 1 129.648 146.268 -5.55112e-17
126 1 45.4921 179.309 -5.55112e-17
127 1 57.2122 94.0397 -5.55112e-17
128 1 164.17 131.417 -5.55112e-17
129 1 217.728 160.111 -5.55112e-17
130 1 125.067 149.995 -5.55112e-17
131 1 208.52 23.383 -5.55112e-17
132 2 177.45 185.314 -5.55112e-17
133 1 100.623 145.318 -5.55112e-17
134 1 172.591 44.0022 -5.55112e-17
135 1 98.7871 166.965 -5.55112e-17
136 1 66.5893 76.8423 -5.55112e-17
137 1 147.063 196.324 -5.55112e-17
138 1 148.677 79.0357 -5.55112e-17
139 1 194.582 102.432 -5.55112e-17
140 2 177.311 174.792 -5.55112e-17
141 1 142.154 139.703 -5.55112e-17
142 2 37.8073 131.724 -5.55112e-17
143 1 48.6148 88.177 -5.55112e-17
144 2 36.3427 89.1879 -5.55112e-17
145 1 12.0569 127.289 -5.55112e-17
146 1 146.365 153.388 -5.55112e-17
147 1 161.838 160.656 -5.55112e-17
148 1 70.6885 138.59 -5.55112e-17
149 1 60.2451 5.4508 -5.55112e-17
150 1 149.77 50.5052 -5.55112e-17
151 1 60.6944 146.492 -5.55112e-17
152 1 189.528 82.5447 -5.55112e-17
153 2 66.7942 171.504 -5.55112e-17
154 1 158.826 135.079 -5.55112e-17
155 1 131.806 68.9498 -5.55112e-17
156 2 41.0119 137.388 -5.55112e-17
157 1 215.999 107.324 -5.55112e-17
158 1 160.012 58.2235 -5.55112e-17
159 1 150.809 136.694 -5.55112e-17
160 1 55.1131 32.7489 -5.55112e-17
161 1 95.2582 169.614 -5.55112e-17
162 1 26.8414 78.6988 -5.55112e-17
163 1 175.677 33.0524 -5.55112e-17
164 1 122.137 125.917 -5.55112e-17
165 1 44.1381 158.865 -5.55112e-17
166 2 158.512 46.6599 -5.55112e-17
167 1 137.22 176.711 -5.55112e-17
168 1 190.092 45.8036 -5.55112e-17
169 1 185.116 116.437 -5.55112e-17
170 1 65.6638 10.0427 -5.55112e-17
171 1 207.635 64.2747 -5.55112e-17
172 1 179.11 17.581 -5.55112e-17
173 1 63.3576 168.355 -5.55112e-17
174 1 8.1014 117.997 -5.55112e-17
175 2 153.478 122.783 -5.55112e-17
176 1 206.986 146.871 -5.55112e-17
177 2 8.30605 27.3488 -5.55112e-17
178 1 62.0454 64.9402 -5.55112e-17
179 1 179.533 115.437 -5.55112e-17
180 1 216.656 63.315 -5.55112e-17
181 1 13.5106 129.525 -5.55112e-17
182 2 1.48028 13.2891 -5.55112e-17
183 1 91.4278 109.273 -5.55112e-17
184 1 14.6549 16.446 -5.55112e-17
185 2 161.855 205.539 -5.55112e-17
186 2 137.067 159.904 -5.55112e-17
187 1 182.372 204.368 -5.55112e-17
188 1 176.685 40.7689 -5.55112e-17
189 1 101.118 98.2413 -5.55112e-17
190 2 123.297 196.542 -5.55112e-17
191 1 59.9305 65.8455 -5.55112e-17
192 2 101.228 80.7712 -5.55112e-17
193 2 77.0842 209.41 -5.55112e-17
194 1 149.889 139.146 -5.55112e-17
195 1 198.479 178.759 -5.55112e-17
196 1 59.8018 212.541 -5.55112e-17
197 1 52.3002 75.1186 -5.55112e-17
198 2 98.5409 137.866 -5.55112e-17
199 1 139.31 17.2484 -5.55112e-17
200 1 75.0947 211.698 -5.55112e-17
201 2 37.5612 68.8679 -5.55112e-17
202 1 170.291 150.78 -5.55112e-17
203 1 44.117 119.797 -5.55112e-17
204 1 148.972 9.98445 -5.55112e-17
205 2 191.396 89.9772 -5.55112e-17
206 1 183.087 49.5376 -5.55112e-17
207 1 75.706 143.75 -5.55112e-17
208 1 169.005 155.078 -5.55112e-17
209 1 120.517 53.685 -5.55112e-17
210 1 7.86979 9.43834 -5.55112e-17
211 2 202.456 133.724 -5.55112e-17
212 1 79.7113 39.5277 -5.55112e-17
213 1 157.584 69.9916 -5.55112e-17
214 1 150.45 92.8468 -5.55112e-17
215 1 165.444 14.0211 -5.55112e-17
216 1 86.1529 203.74 -5.55112e-17
217 1 58.0111 155.365 -5.55112e-17
218 2 133.664 132.649 -5.55112e-17
219 1 89.3094 160.329 -5.55112e-17
220 2 85.9842 148.069 -5.55112e-17
221 1 2.24985 144.134 -5.55112e-17
222 1 170.72 45.7451 -5.55112e-17
223 1 195.74 172.279 -5.55112e-17
224 2 1.57161 7.93691 -5.55112e-17
225 1 123.669 138.466 -5.55112e-17
226 1 184.922 196.223 -5.55112e-17
227 2 206.707 194.839 -5.55112e-17
228 1 89.9967 206.388 -5.55112e-17
229 1 76.4605 68.7257 -5.55112e-17
230 1 178.683 45.2123 -5.55112e-17
231 1 151.259 108.007 -5.55112e-17
232 1 191.677 203.588 -5.55112e-17
233 1 83.1387 187.498 -5.55112e-17
234 1 135.959 74.4159 -5.55112e-17
235 1 0.757055 100.716 -5.55112e-17
236 1 29.2727 18.1399 -5.55112e-17
237 1 7.61261 111.271 -5.55112e-17
238 1 87.8743 146.003 -5.55112e-17
239 2 29.4111 183.554 -5.55112e-17
240 1 158.092 125.761 -5.55112e-17
241 2 56.2255 180.227 -5.55112e-17
242 2 215.253 204.232 -5.55112e-17
243 2 136.585 40.756 -5.55112e-17
244 1 45.5098 138.973 -5.55112e-17
245 1 104.728 171.344 -5.55112e-17
246 1 187.353 141.253 -5.55112e-17
247 1 186.997 122.276 -5.55112e-17
248 1 135.912 60.186 -5.55112e-17
249 1 212.832 196.203 -5.55112e-17
250 2 36.6382 24.5607 -5.55112e-17
251 1 132.348 190.142 -5.55112e-17
252 1 24.9573 206.313 -5.55112e-17
253 1 151.846 185.165 -5.55112e-17
254 2 154.346 160.322 -5.55112e-17
255 1 196.103 195.999 -5.55112e-17
256 1 125.724 72.6373 -5.55112e-17
257 1 12.8986 163.32 -5.55112e-17
258 2 92.82 7.37462 -5.55112e-17
259 1 179.633 52.6349 -5.55112e-17
260 1 144.64 139.598 -5.55112e-17
261 1 151.739 141.081 -5.55112e-17
262 1 29.5417 126.476 -5.55112e-17
263 1 204.066 58.7275 -5.55112e-17
264 1 155.335 93.1288 -5.55112e-17
265 1 140.687 9.24407 -5.55112e-17
266 1 138.35 45.5719 -5.55112e-17
267 1 170.756 172.419 -5.55112e-17
268 1 73.5391 25.3451 -5.55112e-17
269 1 13.4918 112.507 -5.55112e-17
270 1 91.6615 62.0562 -5.55112e-17
271 1 182.688 162.113 -5.55112e-17
272 1 200.269 169.501 -5.55112e-17
273 1 80.633 135.541 -5.55112e-17
274 2 70.3544 131.675 -5.55112e-17
275 1 172.83 116.603 -5.55112e-17
276 2 15.1259 23.5255 -5.55112e-17
277 2 118.847 76.6188 -5.55112e-17
278 1 109.573 2.51338 -5.55112e-17
279 2 111.721 91.7507 -5.55112e-17
280 1 173.526 181.255 -5.55112e-17
281 1 140.021 4.18975 -5.55112e-17
282 1 121.449 204.185 -5.55112e-17
283 1 55.8261 156.844 -5.55112e-17
284 1 114.08 188.278 -5.55112e-17
285 1 7.86169 193.241 -5.55112e-17
286 2 168.406 170.128 -5.55112e-17
287 1 195.947 126.696 -5.55112e-17
288 1 202.03 49.108 -5.55112e-17
289 1 76.8882 159.202 -5.55112e-17
290 1 39.7793 116.105 -5.55112e-17
291 1 107.496 207.242 -5.55112e-17
292 2 44.2149 174.136 -5.55112e-17
293 2 199.275 120.089 -5.55112e-17
294 1 145.006 218.042 -5.55112e-17
295 1 122.675 79.7247 -5.55112e-17
296 1 3.97218 6.41111 -5.55112e-17
297 1 208.933 162.633 -5.55112e-17
298 1 4.26865 194.606 -5.55112e-17
299 1 135.102 150.444 -5.55112e-17
300 2 22.8249 104.103 -5.55112e-17
301 1 138.8 47.8067 -5.55112e-17
302 1 129.737 143.7 -5.55112e-17
303 2 183.162 89.9108 -5.55112e-17
304 2 175.543 106.528 -5.55112e-17
305 1 121.175 201.753 -5.55112e-17
306 1 107.466 90.7705 -5.55112e-17
307 1 32.624 102.977 -5.55112e-17
308 1 93.9184 69.8249 -5.55112e-17
309 2 146.909 183.915 -5.55112e-17
310 1 216.083 39.9452 -5.55112e-17
311 1 51.5385 97.8378 -5.55112e-17
312 1 122.416 156.187 -5.55112e-17
313 2 148.777 207.137 -5.55112e-17
314 1 129.703 218.684 -5.55112e-17
315 1 191.515 127.933 -5.55112e-17
316 1 180.987 202.178 -5.55112e-17
317 1 202.889 108.071 -5.55112e-17
318 1 175.8 147.31 -5.55112e-17
319 1 59.9028 186.145 -5.55112e-17
320 1 174.627 175.911 -5.55112e-17
321 1 206.169 113.347 -5.55112e-17
322 1 64.0372 77.2114 -5.55112e-17
323 1 47.5252 173.898 -5.55112e-17
324 1 132.726 50.7488 -5.55112e-17
325 1 134.689 177.403 -5.55112e-17
326 1 68.3325 103.874 -5.55112e-17
327 2 148.839 63.1234 -5.55112e-17
328 1 109.799 214.675 -5.55112e-17
329 2 20.8375 56.9234 -5.55112e-17
330 1 193.454 126.299 -5.55112e-17
331 1 162.788 210.502 -5.55112e-17
332 2 146.531 67.6493 -5.55112e-17
333 1 46.743 69.5883 -5.55112e-17
334 1 94.4077 62.6684 -5.55112e-17
335 1 36.9071 209.749 -5.55112e-17
336 1 173.687 103.824 -5.55112e-17
337 1 126.484 186.305 -5.55112e-17
338 1 175.329 51.9332 -5.55112e-17
339 1 186.208 156.396 -5.55112e-17
340 1 179.561 81.9386 -5.55112e-17
341 1 156.442 13.8748 -5.55112e-17
342 1 141.456 116.663 -5.55112e-17
343 1 60.4147 25.5794 -5.55112e-17
344 1 56.6332 58.9893 -5.55112e-17
345 1 45.2476 64.5759 -5.55112e-17
346 1 158.506 85.682 -5.55112e-17
347 1 69.3964 55.172 -5.55112e-17
348 1 148.258 7.14028 -5.55112e-17
349 1 204.428 119.676 -5.55112e-17
350 2 111.25 177.863 -5.55112e-17
351 1 177.109 69.1638 -5.55112e-17
352 1 148.558 194.252 -5.55112e-17
353 1 79.4339 158.941 -5.55112e-17
354 1 186.512 183.406 -5.55112e-17
355 1 165.673 18.7656 -5.55112e-17
356 1 206.16 139.753 -5.55112e-17
357 1 138.348 84.8139 -5.55112e-17
358 1 45.1994 4.77315 -5.55112e-17
359 1 199.164 140.252 -5.55112e-17
360 1 3.30852 136.011 -5.55112e-17
361 1 139.638 201.362 -5.55112e-17
362 1 151.443 187.763 -5.55112e-17
363 1 205.703 8.41317 -5.55112e-17
364 2 214.102 87.5977 -5.55112e-17
365 1 63.7359 90.3627 -5.55112e-17
366 1 131.914 147.951 -5.55112e-17
367 1 20.1193 108.595 -5.55112e-17
368 1 6.91637 93.5977 -5.55112e-17
369 2 15.6047 144.365 -5.55112e-17
370 1 129.85 149.219 -5.55112e-17
371 1 110.934 210.228 -5.55112e-17
372 2 202.093 17.2178 -5.55112e-17
373 2 144.476 203.088 -5.55112e-17
374 1 154.723 53.5924 -5.55112e-17
375 1 127.681 217.155 -5.55112e-17
376 1 22.1495 170.879 -5.55112e-17
377 1 162.901 167.841 -5.55112e-17
378 1 111.584 136.72 -5.55112e-17
379 1 35.4064 64.3311 -5.55112e-17
380 1 132.775 198.202 -5.55112e-17
381 1 142.679 121.833 -5.55112e-17
382 1 73.1368 65.7414 -5.55112e-17
383 1 86.4242 107.001 -5.55112e-17
384 1 50.3503 90.1618 -5.55112e-17
385 1 80.6736 93.723 -5.55112e-17
386 2 141.48 26.8678 -5.55112e-17
387 1 19.3453 211.471 -5.55112e-17
388 1 36.2668 167.31 -5.55112e-17
389 1 145.783 14.0243 -5.55112e-17
390 2 171.964 184.614 -5.55112e-17
391 2 0.191777 106.607 -5.55112e-17
392 1 108.921 17.3232 -5.55112e-17
393 1 92.5105 136.499 -5.55112e-17
394 1 95.4383 101.365 -5.55112e-17
395 1 24.11 28.8852 -5.55112e-17
396 1 98.6458 198.386 -5.55112e-17
397 1 13.6797 199.868 -5.55112e-17
398 1 64.7587 35.1467 -5.55112e-17
399 1 169.923 43.1968 -5.55112e-17
400 1 67.725 153.458 -5.55112e-17
401 1 96.6402 2.84461 -5.55112e-17
402 2 212.782 67.3728 -5.55112e-17
403 1 37.5073 108.096 -5.55112e-17
404 1 181.699 94.6646 -5.55112e-17
405 1 128.665 165.388 -5.55112e-17
406 1 43.0271 44.3533 -5.55112e-17
407 2 206.153 2.87138 -5.55112e-17
408 1 90.4752 188.007 -5.55112e-17
409 1 65.2095 146.925 -5.55112e-17
410 1 90.7557 36.5801 -5.55112e-17
411 1 1.70198 60.366 -5.55112e-17
412 1 73.3984 128.181 -5.55112e-17
413 1 41.3536 173.626 -5.55112e-17
414 1 62.2568 44.251 -5.55112e-17
415 1 120.027 167.271 -5.55112e-17
416 1 39.2868 58.9815 -5.55112e-17
417 1 123.114 82.1169 -5.55112e-17
418 2 50.5614 41.2295 -5.55112e-17
419 1 105.136 206.123 -5.55112e-17
420 2 168.281 49.5589 -5.55112e-17
421 1 126.05 85.2516 -5.55112e-17
422 1 137.316 181.78 -5.55112e-17
423 2 211.637 82.1303 -5.55112e-17
424 1 132.077 97.7954 -5.55112e-17
425 1 146.84 20.582 -5.55112e-17
426 1 212.195 193.76 -5.55112e-17
427 1 180.611 31.4343 -5.55112e-17
428 1 8.45138 123.762 -5.55112e-17
429 1 175.369 96.3123 -5.55112e-17
430 1 5.10824 216.237 -5.55112e-17
431 1 200.366 189.964 -5.55112e-17
432 1 77.3367 215.446 -5.55112e-17
433 1 162.359 208.222 -5.55112e-17
434 1 81.8877 98.7034 -5.55112e-17
435 1 143.491 169.764 -5.55112e-17
436 1 61.6697 51.3644 -5.55112e-17
437 1 175.601 140.634 -5.55112e-17
438 2 67.9713 134.021 -5.55112e-17
439 1 41.5785 51.4497 -5.55112e-17
440 1 213.511 209.81 -5.55112e-17
441 1 120.867 137.498 -5.55112e-17
442 1 136.224 91.2514 -5.55112e-17
443 1 205.838 94.4699 -5.55112e-17
444 1 151.93 117.036 -5.55112e-17
445 1 193.954 41.4116 -5.55112e-17
446 1 117.8 190.566 -5.55112e-17
447 1 50.8183 33.814 -5.55112e-17
448 1 47.9414 213.346 -5.55112e-17
449 1 85.5593 25.655 -5.55112e-17
450 1 69.8415 50.7651 -5.55112e-17
451 1 131.649 85.9079 -5.55112e-17
452 1 115.108 206.596 -5.55112e-17
453 1 127.176 118.746 -5.55112e-17
454 1 41.7571 142.835 -5.55112e-17
455 1 204.959 18.157 -5.55112e-17
456 1 9.2119 178.746 -5.55112e-17
457 1 76.5449 61.1248 -5.55112e-17
458 1 156.346 33.3109 -5.55112e-17
459 1 105.726 47.8063 -5.55112e-17
460 1 117.756 26.9723 -5.55112e-17
461 1 92.8052 169.911 -5.55112e-17
462 1 181.411 67.7384 -5.55112e-17
463 1 180.496 216.366 -5.55112e-17
464 1 104.453 73.9273 -5.55112e-17
465 1 153.11 39.2725 -5.55112e-17
466 1 23.6583 26.1179 -5.55112e-17
467 1 16.3746 155.041 -5.55112e-17
468 1 187.148 108.916 -5.55112e-17
469 1 72.4385 211.124 -5.55112e-17
470 1 129.764 117.739 -5.55112e-17
471 1 182.496 200.087 -5.55112e-17
472 1 98.8533 45.769 -5.55112e-17
473 1 109.395 7.48635 -5.55112e-17
474 1 116.166 113.135 -5.55112e-17
475 1 6.54859 104.706 -5.55112e-17
476 2 35.9874 46.1641 -5.55112e-17
477 1 187.977 218.969 -5.55112e-17
478 1 218.378 147.871 -5.55112e-17
479 1 58.3169 70.927 -5.55112e-17
480 1 49.289 68.8711 -5.55112e-17
481 1 218.769 133.914 -5.55112e-17
482 1 172.517 207.036 -5.55112e-17
483 1 93.6643 178.466 -5.55112e-17
484 2 84.2066 28.2707 -5.55112e-17
485 1 11.0481 150.254 -5.55112e-17
486 1 23.5234 69.6723 -5.55112e-17
487 1 71.2789 44.1832 -5.55112e-17
488 1 75.1957 106.501 -5.55112e-17
489 1 191.835 18.3429 -5.55112e-17
490 1 67.819 16.5962 -5.55112e-17
491 1 146.67 127.66 -5.55112e-17
492 1 90.591 116.686 -5.55112e-17
493 1 101.557 193.24 -5.55112e-17
494 1 108.238 48.2144 -5.55112e-17
495 1 89.4518 26.8067 -5.55112e-17
496 2 163.06 3.96014 -5.55112e-17
497 1 191.442 137.379 -5.55112e-17
498 1 28.3452 167.07 -5.55112e-17
499 2 115.089 51.81 -5.55112e-17
500 1 206.641 162.132 -5.55112e-17
501 2 193.068 188.71 -5.55112e-17
502 2 74.7612 176.427 -5.55112e-17
503 1 118.859 139.812 -5.55112e-17
504 1 198.248 173.493 -5.55112e-17
505 1 63.3949 53.567 -5.55112e-17
506 1 128.578 183.815 -5.55112e-17
507 1 66.0841 121.002 -5.55112e-17
508 1 180.42 174.116 -5.55112e-17
509 2 41.5443 98.9829 -5.55112e-17
510 2 70.1184 157.351 -5.55112e-17
511 1 129.077 162.816 -5.55112e-17
512 2 49.9627 100.272 -5.55112e-17
513 1 54.5801 130.863 -5.55112e-17
514 1 10.7719 74.7167 -5.55112e-17
515 1 92.787 38.2538 -5.55112e-17
516 1 21.9279 131.29 -5.55112e-17
517 1 151.9 198.891 -5.55112e-17
518 2 144.56 155.938 -5.55112e-17
519 1 0.529319 16.1033 -5.55112e-17
520 2 6.15609 63.2211 -5.55112e-17
521 1 190.194 75.4453 -5.55112e-17
522 1 67.4983 131.245 -5.55112e-17
523 1 54.5555 6.22126 -5.55112e-17
524 1 217.608 185.683 -5.55112e-17
525 1 4.58373 152.627 -5.55112e-17
526 1 198.284 43.3858 -5.55112e-17
527 1 37.8649 19.8226 -5.55112e-17
528 1 78.3653 89.2723 -5.55112e-17
529 1 70.8892 115.662 -5.55112e-17
530 1 89.7135 53.677 -5.55112e-17
531 1 74.1209 202.362 -5.55112e-17
532 1 33.6247 194.337 -5.55112e-17
533 1 93.9503 124.632 -5.55112e-17
534 1 187.363 199.017 -5.55112e-17
535 1 116.597 4.88731 -5.55112e-17
536 1 165.79 34.1596 -5.55112e-17
537 1 29.5748 169.386 -5.55112e-17
538 1 138.655 60.3879 -5.55112e-17
539 1 27.8768 56.2134 -5.55112e-17
540 1 127.586 188.793 -5.55112e-17
541 1 143.02 173.106 -5.55112e-17
542 1 103.501 54.8881 -5.55112e-17
543 1 119.517 64.7997 -5.55112e-17
544 1 204.431 15.3614 -5.55112e-17
545 1 202.54 185.033 -5.55112e-17
546 1 184.923 131.095 -5.55112e-17
547 1 45.0873 15.2644 -5.55112e-17
548 1 217.441 205.943 -5.55112e-17
549 1 9.55125 41.9207 -5.55112e-17
550 2 203.071 102.734 -5.55112e-17
551 2 93.6755 107.384 -5.55112e-17
552 2 148.144 15.5532 -5.55112e-17
553 1 185.044 21.397 -5.55112e-17
554 1 218.382 40.9096 -5.55112e-17
555 2 12.2188 92.0876 -5.55112e-17
556 1 121.381 94.2675 -5.55112e-17
557 1 47.5727 122.893 -5.55112e-17
558 1 178.377 23.2238 -5.55112e-17
559 1 8.67011 19.9728 -5.55112e-17
560 1 166.578 178.666 -5.55112e-17
561 1 7.15202 190.699 -5.55112e-17
562 1 29.6421 4.72728 -5.55112e-17
563 2 209.112 182.042 -5.55112e-17
564 1 19.6402 177.917 -5.55112e-17
565 1 110.095 207.667 -5.55112e-17
566 1 7.91368 134.14 -5.55112e-17
567 1 104.924 76.4573 -5.55112e-17
568 1 186.531 99.2936 -5.55112e-17
569 1 39.7881 193.665 -5.55112e-17
570 1 104.938 117.241 -5.55112e-17
571 1 185.112 123.964 -5.55112e-17
572 1 166.058 22.7244 -5.55112e-17
573 1 152.994 125.683 -5.55112e-17
574 1 163.238 155.716 -5.55112e-17
575 1 208.357 82.1982 -5.55112e-17
576 1 149.364 97.6633 -5.55112e-17
577 1 172.665 13.0578 -5.55112e-17
578 1 106.34 211.448 -5.55112e-17
579 1 19.1834 18.0638 -5.55112e-17
580 1 84.3207 53.5371 -5.55112e-17
581 1 2.33478 151.534 -5.55112e-17
582 1 161.348 7.09319 -5.55112e-17
583 1 96.6097 85.1249 -5.55112e-17
584 2 185.773 48.0229 -5.55112e-17
585 1 17.2558 130.692 -5.55112e-17
586 1 112.005 129.999 -5.55112e-17
587 1 132.172 208.587 -5.55112e-17
588 1 55.7718 153.975 -5.55112e-17
589 1 157.084 174.576 -5.55112e-17
590 1 123.361 49.2132 -5.55112e-17
591 1 135.357 135.656 -5.55112e-17
592 1 7.65907 60.3051 -5.55112e-17
593 1 30.9528 167.365 -5.55112e-17
594 1 10.3523 141.464 -5.55112e-17
595 1 69.8865 108.218 -5.55112e-17
596 1 75.0744 0.259038 -5.55112e-17
597 2 58.2596 207.935 -5.55112e-17
598 1 13.7219 18.962 -5.55112e-17
599 1 211.834 208.1 -5.55112e-17
600 1 179.712 7.14924 -5.55112e-17
601 1 46.938 176.383 -5.55112e-17
602 1 139.468 70.0201 -5.55112e-17
603 1 118.824 94.4138 -5.55112e-17
604 1 77.5902 168.776 -5.55112e-17
605 2 77.5538 153.662 -5.55112e-17
606 1 199.159 209.185 -5.55112e-17
607 2 197.413 181.389 -5.55112e-17
608 1 131.818 171.28 -5.55112e-17
609 1 196.333 142.197 -5.55112e-17
610 1 179.007 153.868 -5.55112e-17
611 1 87.9203 198.672 -5.55112e-17
612 1 22.2862 0.144543 -5.55112e-17
613 1 155.963 142.736 -5.55112e-17
614 2 17.5372 192.76 -5.55112e-17
615 1 100.598 207.108 -5.55112e-17
616 1 118.682 113.528 -5.55112e-17
617 1 31.5996 186.356 -5.55112e-17
618 1 144.985 200.293 -5.55112e-17
619 1 140.265 65.6873 -5.55112e-17
620 1 26.6437 16.2558 -5.55112e-17
621 1 118.585 55.2867 -5.55112e-17
622 1 69.625 30.4988 -5.55112e-17
623 1 12.3969 160.596 -5.55112e-17
624 1 55.8612 162.475 -5.55112e-17
625 1 166.557 185.894 -5.55112e-17
626 1 35.1235 180.37 -5.55112e-17
627 1 107.496 156.298 -5.55112e-17
628 1 72.7988 39.6167 -5.55112e-17
629 1 183.254 65.8136 -5.55112e-17
630 2 132.602 122.207 -5.55112e-17
631 1 62.6127 108.234 -5.55112e-17
632 1 6.3027 16.7291 -5.55112e-17
633 1 9.49397 0.0149822 -5.55112e-17
634 1 181.404 154.54 -5.55112e-17
635 1 64.3949 185.147 -5.55112e-17
636 1 176.89 3.25635 -5.55112e-17
637 1 188.032 27.7231 -5.55112e-17
638 1 74.266 75.3974 -5.55112e-17
639 2 54.3053 49.352 -5.55112e-17
640 1 95.7576 186.587 -5.55112e-17
641 1 162.376 96.9128 -5.55112e-17
642 1 91.5661 34.001 -5.55112e-17
643 2 184.552 18.5203 -5.55112e-17
644 1 41.0469 191.449 -5.55112e-17
645 1 29.6524 142.194 -5.55112e-17
646 2 212.266 61.1056 -5.55112e-17
647 1 195.764 15.6821 -5.55112e-17
648 1 208.173 8.667 -5.55112e-17
649 2 125.032 191.275 -5.55112e-17
650 1 192.93 49.952 -5.55112e-17
651 1 215.142 21.4163 -5.55112e-17
652 1 179.167 143.991 -5.55112e-17
653 1 8.39321 80.0318 -5.55112e-17
654 1 17.0169 2.37528 -5.55112e-17
655 2 209.228 116.684 -5.55112e-17
656 1 23.8211 178.477 -5.55112e-17
657 2 186.344 201.796 -5.55112e-17
658 1 33.4761 90.3215 -5.55112e-17
659 2 147.802 88.5881 -5.55112e-17
660 1 61.0892 195.954 -5.55112e-17
661 1 133.559 114.514 -5.55112e-17
662 1 103.44 169.257 -5.55112e-17
663 1 107.382 52.5045 -5.55112e-17
664 1 117.562 15.1598 -5.55112e-17
665 1 127.359 108.589 -5.55112e-17
666 2 122.572 33.1126 -5.55112e-17
667 1 117.246 155.56 -5.55112e-17
668 2 165.025 169.633 -5.55112e-17
669 1 123.634 41.1773 -5.55112e-17
670 1 115.57 11.0146 -5.55112e-17
671 2 47.1087 158.912 -5.55112e-17
672 1 128.888 68.837 -5.55112e-17
673 1 41.4996 96.0341 -5.55112e-17
674 1 24.5542 137.46 -5.55112e-17
675 1 185.163 204.32 -5.55112e-17
676 1 196.744 111.656 -5.55112e-17
677 1 193.476 176.157 -5.55112e-17
678 1 173.204 171.793 -5.55112e-17
679 2 148.363 189.135 -5.55112e-17
680 1 50.6177 13.5272 -5.55112e-17
681 2 195.448 27.4031 -5.55112e-17
682 1 8.70018 183.335 -5.55112e-17
683 1 28.5355 194.109 -5.55112e-17
684 1 167.932 18.2447 -5.55112e-17
685 1 132.357 88.1559 -5.55112e-17
686 1 146.47 118.264 -5.55112e-17
687 1 208.412 160.181 -5.55112e-17
688 1 3.68039 108.759 -5.55112e-17
689 2 70.2084 65.3501 -5.55112e-17
690 1 112.617 125.229 -5.55112e-17
691 1 45.8604 88.3659 -5.55112e-17
692 1 73.0848 180.936 -5.55112e-17
693 1 26.4211 76.4604 -5.55112e-17
694 1 49.6787 198.834 -5.55112e-17
695 1 198.207 50.8916 -5.55112e-17
696 1 117.691 173.882 -5.55112e-17
697 1 188.377 124.366 -5.55112e-17
698 1 78.7086 119.403 -5.55112e-17
699 1 202.97 126.429 -5.55112e-17
700 1 11.4539 153.122 -5.55112e-17
701 1 32.2111 100.322 -5.55112e-17
702 1 201.617 130.734 -5.55112e-17
703 2 28.8499 145.425 -5.55112e-17
704 1 125.413 216.028 -5.55112e-17
705 2 95.0457 216.228 -5.55112e-17
706 1 23.5336 126.505 -5.55112e-17
707 1 117.811 59.5888 -5.55112e-17
708 1 117.454 123.622 -5.55112e-17
709 1 55.8503 89.6286 -5.55112e-17
710 1 55.7439 61.3807 -5.55112e-17
711 1 65.7199 168.708 -5.55112e-17
712 1 191.217 93.7735 -5.55112e-17
713 1 132.005 34.7605 -5.55112e-17
714 1 139.417 62.9611 -5.55112e-17
715 1 25.2827 7.42171 -5.55112e-17
716 1 104.079 203.628 -5.55112e-17
717 1 83.4968 153.491 -5.55112e-17
718 1 197.809 95.8247 -5.55112e-17
719 2 100.78 8.76705 -5.55112e-17
720 1 61.9454 67.5626 -5.55112e-17
721 1 165.94 150.844 -5.55112e-17
722 1 80.375 105.483 -5.55112e-17
723 2 180.668 59.9996 -5.55112e-17
724 1 37.8576 169.265 -5.55112e-17
725 1 41.0911 45.7417 -5.55112e-17
726 1 156.206 64.2162 -5.55112e-17
727 1 68.6569 165.233 -5.55112e-17
728 2 159.352 82.7175 -5.55112e-17
729 1 176.258 202.758 -5.55112e-17
730 1 56.1025 159.741 -5.55112e-17
731 1 114.106 39.8692 -5.55112e-17
732 1 123.442 30.3383 -5.55112e-17
733 1 194.411 30.4306 -5.55112e-17
734 1 58.2612 60.7863 -5.55112e-17
735 1 168.379 33.5642 -5.55112e-17
736 2 168.97 90.5036 -5.55112e-17
737 1 132.21 139.666 -5.55112e-17
738 1 212.365 143.679 -5.55112e-17
739 1 205.13 179.865 -5.55112e-17
740 1 26.5908 136.045 -5.55112e-17
741 2 213.941 199.335 -5.55112e-17
742 1 32.6426 70.7851 -5.55112e-17
743 1 181.019 23.289 -5.55112e-17
744 2 10.0418 58.5873 -5.55112e-17
745 1 96.1786 25.144 -5.55112e-17
746 1 87.0395 213.908 -5.55112e-17
747 2 187.203 53.3325 -5.55112e-17
748 1 178.711 36.7108 -5.55112e-17
749 1 16.6185 211.185 -5.55112e-17
750 1 32.6813 141.374 -5.55112e-17
751 1 92.5141 64.5556 -5.55112e-17
752 1 193.339 165.872 -5.55112e-17
753 1 68.9638 197.551 -5.55112e-17
754 1 34.3176 37.7365 -5.55112e-17
755 1 110.023 70.5099 -5.55112e-17
756 2 170.294 11.533 -5.55112e-17
757 1 18.0882 15.8543 -5.55112e-17
758 1 20.4465 105.753 -5.55112e-17
759 1 173.983 178.431 -5.55112e-17
760 1 147.026 120.691 -5.55112e-17
761 1 62.238 35.2153 -5.55112e-17
762 1 3.94377 81.7326 -5.55112e-17
763 1 2.46022 95.9859 -5.55112e-17
764 2 98.5573 188.506 -5.55112e-17
765 1 189.063 22.3845 -5.55112e-17
766 1 54.0355 97.671 -5.55112e-17
767 1 218.169 0.736629 -5.55112e-17
768 1 188.887 11.8143 -5.55112e-17
769 1 113.315 175.549 -5.55112e-17
770 2 60.6969 98.2707 -5.55112e-17
771 1 49.1533 148.566 -5.55112e-17
772 1 74.8256 149.862 -5.55112e-17
773 1 76.1029 12.5009 -5.55112e-17
774 1 154.813 120.078 -5.55112e-17
775 1 139.912 218.45 -5.55112e-17
776 1 122.749 13.5974 -5.55112e-17
777 1 172.692 29.5393 -5.55112e-17
778 1 57.8078 5.9725 -5.55112e-17
779 1 1.08471 125.297 -5.55112e-17
780 1 139.674 97.8887 -5.55112e-17
781 1 8.76845 98.3506 -5.55112e-17
782 1 15.7958 54.3217 -5.55112e-17
783 1 129.24 29.4855 -5.55112e-17
784 2 140.174 82.2984 -5.55112e-17
785 1 78.7487 186.576 -5.55112e-17
786 1 54.3568 169.34 -5.55112e-17
787 1 40.2453 10.1615 -5.55112e-17
788 1 135.444 122.889 -5.55112e-17
789 2 6.88343 82.2681 -5.55112e-17
790 1 108.894 42.3934 -5.55112e-17
791 2 141.688 164.105 -5.55112e-17
792 2 3.05145 68.3362 -5.55112e-17
793 2 129.28 170.385 -5.55112e-17
794 1 72.763 58.6937 -5.55112e-17
795 1 163.626 203.648 -5.55112e-17
796 1 139.816 185.82 -5.55112e-17
797 1 133.608 172.994 -5.55112e-17
798 2 67.2165 63.6164 -5.55112e-17
799 2 18.7002 113.944 -5.55112e-17
800 2 135.988 55.4354 -5.55112e-17
801 1 175.42 9.30647 -5.55112e-17
802 1 91.1855 74.1572 -5.55112e-17
803 1 176.714 100.663 -5.55112e-17
804 2 110.049 164.36 -5.55112e-17
805 1 142.434 104.514 -5.55112e-17
806 1 46.256 171.774 -5.55112e-17
807 2 172.683 193.095 -5.55112e-17
808 1 115.28 106.998 -5.55112e-17
809 2 150.941 35.7388 -5.55112e-17
810 1 123.682 84.5148 -5.55112e-17
811 1 24.0748 47.5002 -5.55112e-17
812 1 197.554 190.915 -5.55112e-17
813 2 36.8015 218.972 -5.55112e-17
814 1 60.5216 106.384 -5.55112e-17
815 1 33.1863 15.1495 -5.55112e-17
816 1 35.984 43.0561 -5.55112e-17
817 1 213.944 114.953 -5.55112e-17
818 1 169.361 199.552 -5.55112e-17
819 1 120.533 174.355 -5.55112e-17
820 1 112.336 19.8966 -5.55112e-17
821 1 94.1379 142.173 -5.55112e-17
822 2 21.7208 176.026 -5.55112e-17
823 2 193.227 71.1951 -5.55112e-17
824 1 91.0999 113.983 -5.55112e-17
825 1 32.816 214.928 -5.55112e-17
826 1 200.386 126.007 -5.55112e-17
827 1 30.5084 0.233664 -5.55112e-17
828 1 68.1214 5.92797 -5.55112e-17
829 1 18.1765 60.4623 -5.55112e-17
830 1 21.0978 201.481 -5.55112e-17
831 1 196.641 158.24 -5.55112e-17
832 1 165.466 29.3498 -5.55112e-17
833 1 181.118 92.2245 -5.55112e-17
834 1 108.59 0.168206 -5.55112e-17
835 1 28.9107 173.804 -5.55112e-17
836 1 23.1891 42.3709 -5.55112e-17
837 1 217.596 49.7945 -5.55112e-17
838 1 1.01955 49.9111 -5.55112e-17
839 2 208.713 149.258 -5.55112e-17
840 1 69.3926 94.1603 -5.55112e-17
841 2 83.9881 67.0478 -5.55112e-17
842 1 196.201 9.25187 -5.55112e-17
843 2 156.749 183.116 -5.55112e-17
844 1 205.316 216.534 -5.55112e-17
845 1 36.0653 187.697 -5.55112e-17
846 1 138.909 55.7982 -5.55112e-17
847 1 159.483 200.187 -5.55112e-17
848 1 111.363 41.0323 -5.55112e-17
849 1 151.53 88.3706 -5.55112e-17
850 1 90.0726 177.84 -5.55112e-17
851 1 61.4461 95.1816 -5.55112e-17
852 1 84.457 31.1641 -5.55112e-17
853 1 146.28 158.082 -5.55112e-17
854 1 79.9584 110.196 -5.55112e-17
855 1 130.006 99.3926 -5.55112e-17
856 1 110.045 197.629 -5.55112e-17