ITEM: TIMESTEP
0
ITEM: NUMBER OF ATOMS
7200
ITEM: BOX BOUNDS xy xz yz pp pp pp
0.0000000000000000e+00 2.1900000000000000e+02 0.0000000000000000e+00
0.0000000000000000e+00 2.1900000000000000e+02 0.0000000000000000e+00
-3.6499999999999999e-01 3.6499999999999999e-01 0.0000000000000000e+00
ITEM: ATOMS id type x y z
1 1 49.8218 86.3974 -5.55112e-17
2 1 207.185 78.6372 -5.55112e-17
3 1 21.6192 213.526 -5.55112e-17
4 1 46.4641 184.494 -5.55112e-17
5 1 216.799 119.054 -5.55112e-17
6 1 21.6093 159.567 -5.55112e-17
7 1 67.228 210.205 -5.55112e-17
8 2 85.0538 103.684 -5.55112e-17
9 1 99.8138 186.868 -5.55112e-17
10 2 151.034 91.4714 -5.55112e-17
11 1 126.787 47.2647 -5.55112e-17
12 1 23.5547 103.89 -5.55112e-17
13 2 178.95 151.468 -5.55112e-17
14 1 179.217 34.6191 -5.55112e-17
15 1 201.145 45.5747 -5.55112e-17
16 2 196.951 120.232 -5.55112e-17
17 1 186.329 46.5252 -5.55112e-17
18 2 34.1892 14.4567 -5.55112e-17
19 1 147.398 0.788534 -5.55112e-17
20 1 209.814 160.235 -5.55112e-17
21 1 114.76 15.9836 -5.55112e-17
22 2 9.17701 176.229 -5.55112e-17
23 2 120.176 71.3873 -5.55112e-17
24 1 199.392 176.971 -5.55112e-17
25 1 99.0525 81.7081 -5.55112e-17
26 2 213.642 166.043 -5.55112e-17
27 1 191.854 40.5963 -5.55112e-17
28 2 169.24 151.542 -5.55112e-17
29 1 8.98975 67.3372 -5.55112e-17
30 1 130.27 133.357 -5.55112e-17
31 1 14.0003 174.705 -5.55112e-17
32 1 104.618 77.1642 -5.55112e-17
33 1 63.9572 157.234 -5.55112e-17
34 1 159.013 58.49 -5.55112e-17
35 1 144.663 7.17468 -5.55112e-17
36 1 99.6964 161.165 -5.55112e-17
37 2 47.1827 27.2781 -5.55112e-17
38 1 56.9902 103.005 -5.55112e-17
39 1 174.407 103.381 -5.55112e-17
40 1 41.9923 104.968 -5.55112e-17
41 1 110.017 148.925 -5.55112e-17
42 1 188.382 54.3974 -5.55112e-17
43 1 119.677 202.696 -5.55112e-17
44 1 34.5642 128.436 -5.55112e-17
45 1 115.065 164.256 -5.55112e-17
46 1 80.9819 210.937 -5.55112e-17
47 1 87.4182 57.846 -5.55112e-17
48 2 96.7629 160.621 -5.55112e-17
49 1 174.857 83.5404 -5.55112e-17
50 1 105.954 103.809 -5.55112e-17
51 1 137.321 87.7962 -5.55112e-17
52 1 92.6221 54.0663 -5.55112e-17
53 1 4.7258 119.385 -5.55112e-17
54 1 67.1637 91.2544 -5.55112e-17
55 1 53.5177 69.7976 -5.55112e-17
56 1 173.556 100.921 -5.55112e-17
57 2 165.906 170.247 -5.55112e-17
58 1 206.366 19.2818 -5.55112e-17
59 1 84.1186 10.7255 -5.55112e-17
60 2 101.468 54.0156 -5.55112e-17
61 2 206.132 212.668 -5.55112e-17
62 1 29.6734 115.001 -5.55112e-17
63 1 61.6204 204.969 -5.55112e-17
64 1 44.7781 182.552 -5.55112e-17
65 1 32.047 191.359 -5.55112e-17
66 1 13.5877 48.8992 -5.55112e-17
67 1 10.5993 160.645 -5.55112e-17
68 1 89.9639 11.5944 -5.55112e-17
69 1 164.292 149.339 -5.55112e-17
70 1 113.718 126.935 -5.55112e-17
71 1 100.286 46.8968 -5.55112e-17
72 1 197.625 211.287 -5.55112e-17
73 1 16.9183 125.474 -5.55112e-17
74 1 110.783 213.372 -5.55112e-17
75 2 1.63747 27.895 -5.55112e-17
76 1 146.399 40.9213 -5.55112e-17
77 1 200.335 36.8288 -5.55112e-17
78 1 70.173 198.038 -5.55112e-17
79 2 136.11 121.986 -5.55112e-17
80 1 188.557 172.469 -5.55112e-17
81 1 3.29332 77.9317 -5.55112e-17
82 1 156.515 201.015 -5.55112e-17
83 2 96.0009 178.128 -5.55112e-17
84 1 198.68 38.8333 -5.55112e-17
85 1 52.1114 71.8017 -5.55112e-17
86 1 126.36 130.608 -5.55112e-17
87 1 75.2413 77.54 -5.55112e-17
88 1 129.807 99.8287 -5.55112e-17
89 2 184.586 214.644 -5.55112e-17
90 2 11.4884 212.885 -5.55112e-17
91 1 137.381 143.344 -5.55112e-17
92 2 149.858 2.16162 -5.55112e-17
93 1 129.019 24.2461 -5.55112e-17
94 2 64.1645 5.04518 -5.55112e-17
95 1 205.942 51.0785 -5.55112e-17
96 1 201.893 167.868 -5.55112e-17
97 1 198.872 216.127 -5.55112e-17
98 1 61.7854 175.387 -5.55112e-17
99 1 193.794 80.7943 -5.55112e-17
100 1 147.811 53.2932 -5.55112e-17
101 1 49.1815 61.4401 -5.55112e-17
102 1 88.343 150.707 -5.55112e-17
103 1 128.383 136.768 -5.55112e-17
104 1 93.2699 147.65 -5.55112e-17
105 1 47.692 139.749 -5.55112e-17
106 1 151.701 140.166 -5.55112e-17
107 2 39.632 215.138 -5.55112e-17
108 1 156.517 161.46 -5.55112e-17
109 1 33.1944 53.3488 -5.55112e-17
110 1 88.2866 188.218 -5.55112e-17
111 1 12.2314 20.8315 -5.55112e-17
112 1 121.385 129 -5.55112e-17
113 1 90.1102 14.1181 -5.55112e-17
114 1 70.3601 188.452 -5.55112e-17
115 1 27.5793 135.238 -5.55112e-17
116 2 76.5707 26.5516 -5.55112e-17
117 1 27.5828 152.433 -5.55112e-17
118 1 213.284 86.171 -5.55112e-17
119 2 151.371 84.5706 -5.55112e-17
120 1 113.291 207.3 -5.55112e-17
121 1 25.0758 127.763 -5.55112e-17
122 1 58.5913 142.828 -5.55112e-17
123 1 98.1623 64.2625 -5.55112e-17
124 1 133.709 172.447 -5.55112e-17
125 1 156.162 113.018 -5.55112e-17
126 1 92.7029 189.431 -5.55112e-17
127 1 2.54633 186.817 -5.55112e-17
128 1 170.505 163.958 -5.55112e-17
129 1 11.2191 189.915 -5.55112e-17
130 1 140.272 52.3541 -5.55112e-17
131 1 147.583 120.003 -5.55112e-17
132 2 13.8296 69.9785 -5.55112e-17
133 1 61.7703 73.573 -5.55112e-17
134 1 158.887 143.66 -5.55112e-17
135 1 218.813 140.077 -5.55112e-17
136 1 103.609 103.305 -5.55112e-17
137 1 170.374 128.687 -5.55112e-17
138 1 166.105 34.3213 -5.55112e-17
139 1 122.337 145.479 -5.55112e-17
140 2 176.087 4.14314 -5.55112e-17
141 1 63.5117 69.1207 -5.55112e-17
142 2 45.7141 149.58 -5.55112e-17
143 1 122.612 124.621 -5.55112e-17
144 2 92.0271 119.505 -5.55112e-17
145 1 123.918 24.6585 -5.55112e-17
146 1 52.2206 125.859 -5.55112e-17
147 1 66.4681 62.0506 -5.55112e-17
148 1 120.74 102.296 -5.55112e-17
149 1 24.1064 1.91028 -5.55112e-17
150 1 193.996 135.275 -5.55112e-17
151 1 47.7408 186.931 -5.55112e-17
152 1 130.554 141.15 -5.55112e-17
153 2 84.8953 2.95792 -5.55112e-17
154 1 19.9552 196.39 -5.55112e-17
155 1 149.38 200.05 -5.55112e-17
156 2 170.016 110.47 -5.55112e-17
157 1 107.352 87.2826 -5.55112e-17
158 1 22.566 12.9486 -5.55112e-17
159 1 149.173 122.539 -5.55112e-17
160 1 68.0167 119.022 -5.55112e-17
161 1 198.604 66.1758 -5.55112e-17
162 1 118.12 116.184 -5.55112e-17
163 1 48.8031 64.1814 -5.55112e-17
164 1 149.653 54.6471 -5.55112e-17
165 1 8.2256 206.724 -5.55112e-17
166 2 195.895 65.3358 -5.55112e-17
167 1 68.0249 121.683 -5.55112e-17
168 1 208.379 172.231 -5.55112e-17
169 1 59.152 194.155 -5.55112e-17
170 1 192.117 68.6898 -5.55112e-17
171 1 174.228 57.7161 -5.55112e-17
172 1 125.961 73.0477 -5.55112e-17
173 1 143.579 75.858 -5.55112e-17
174 1 24.1434 25.7336 -5.55112e-17
175 2 28.4386 56.0074 -5.55112e-17
176 1 31.8913 176.023 -5.55112e-17
177 2 181.686 169.948 -5.55112e-17
178 1 21.2273 216.055 -5.55112e-17
179 1 123.898 105.485 -5.55112e-17
180 1 184.872 168.858 -5.55112e-17
181 1 147.104 172.793 -5.55112e-17
182 2 215.213 207.794 -5.55112e-17
183 1 17.1061 216.974 -5.55112e-17
184 1 156.994 147.431 -5.55112e-17
185 2 152.404 70.1431 -5.55112e-17
186 2 172.456 21.5097 -5.55112e-17
187 1 57.497 158.738 -5.55112e-17
188 1 211.554 79.1336 -5.55112e-17
189 1 38.165 98.0617 -5.55112e-17
190 2 189.329 95.6207 -5.55112e-17
191 1 14.9707 152.068 -5.55112e-17
192 2 68.4441 114.317 -5.55112e-17
193 2 44.7858 200.732 -5.55112e-17
194 1 44.8031 172.373 -5.55112e-17
195 1 184.024 103.841 -5.55112e-17
196 1 93.4088 17.5813 -5.55112e-17
197 1 99.5811 112.958 -5.55112e-17
198 2 1.02372 167.987 -5.55112e-17
199 1 49.9034 59.0918 -5.55112e-17
200 1 99.0187 20.2861 -5.55112e-17
201 2 176.958 56.6707 -5.55112e-17
202 1 144.016 112.989 -5.55112e-17
203 1 121.409 104.561 -5.55112e-17
204 1 3.66162 205.513 -5.55112e-17
205 2 47.3157 155.773 -5.55112e-17
206 1 34.6868 84.3021 -5.55112e-17
207 1 163.863 115.463 -5.55112e-17
208 1 140.694 214.303 -5.55112e-17
209 1 113.74 89.4875 -5.55112e-17
210 1 147.196 136.818 -5.55112e-17
211 2 8.35798 46.401 -5.55112e-17
212 1 178.759 54.4406 -5.55112e-17
213 1 40.7661 27.9066 -5.55112e-17
214 1 2.78541 210.296 -5.55112e-17
215 1 216.564 215.249 -5.55112e-17
216 1 197.777 35.6527 -5.55112e-17
217 1 80.5493 194.515 -5.55112e-17
218 2 79.5723 27.595 -5.55112e-17
219 1 51.5181 52.5347 -5.55112e-17
220 2 104.695 124.192 -5.55112e-17
221 1 198.732 19.6471 -5.55112e-17
222 1 48.684 17.9978 -5.55112e-17
223 1 77.9053 1.84246 -5.55112e-17
224 2 176.737 12.0986 -5.55112e-17
225 1 44.133 133.616 -5.55112e-17
226 1 188.843 79.342 -5.55112e-17
227 2 211.695 61.6341 -5.55112e-17
228 1 101.833 177.523 -5.55112e-17
229 1 136.652 105.575 -5.55112e-17
230 1 46.3191 146.849 -5.55112e-17
231 1 82.1787 192.581 -5.55112e-17
232 1 170.048 66.787 -5.55112e-17
233 1 22.3115 18.674 -5.55112e-17
234 1 16.8271 108.059 -5.55112e-17
235 1 84.0047 62.1112 -5.55112e-17
236 1 148.565 117.579 -5.55112e-17
237 1 83.3939 40.0505 -5.55112e-17
238 1 78.1324 15.6269 -5.55112e-17
239 2 60.1772 125.127 -5.55112e-17
240 1 161.147 216.573 -5.55112e-17
241 2 35.1735 123.801 -5.55112e-17
242 2 61.7329 33.3628 -5.55112e-17
243 2 207.458 0.675648 -5.55112e-17
244 1 4.27136 188.66 -5.55112e-17
245 1 72.3592 85.6212 -5.55112e-17
246 1 71.8591 214.101 -5.55112e-17
247 1 5.50078 179.02 -5.55112e-17
248 1 69.6964 209.991 -5.55112e-17
249 1 1.81857 67.8171 -5.55112e-17
250 2 63.9064 56.204 -5.55112e-17
251 1 155.685 120.246 -5.55112e-17
252 1 73.1267 27.3968 -5.55112e-17
253 1 71.629 186.318 -5.55112e-17
254 2 101.758 7.66784 -5.55112e-17
255 1 159.089 210.306 -5.55112e-17
256 1 121.016 157.788 -5.55112e-17
257 1 123.248 41.2773 -5.55112e-17
258 2 154.195 8.23189 -5.55112e-17
259 1 43.5806 190.051 -5.55112e-17
260 1 216.173 67.3556 -5.55112e-17
261 1 89.7932 167.959 -5.55112e-17
262 1 154.205 57.7616 -5.55112e-17
263 1 58.6313 197.868 -5.55112e-17
264 1 173.515 28.8767 -5.55112e-17
265 1 215.489 87.5675 -5.55112e-17
266 1 213.034 88.5706 -5.55112e-17
267 1 192.542 95.3688 -5.55112e-17
268 1 106.229 4.22576 -5.55112e-17
269 1 63.093 199.309 -5.55112e-17
270 1 99.9058 56.591 -5.55112e-17
271 1 21.5768 63.3374 -5.55112e-17
272 1 7.59758 209.272 -5.55112e-17
273 1 168.531 133.804 -5.55112e-17
274 2 62.4214 82.4678 -5.55112e-17
275 1 95.0341 107.693 -5.55112e-17
276 2 148.112 79.3095 -5.55112e-17
277 2 188.241 183.479 -5.55112e-17
278 1 110.633 210.978 -5.55112e-17
279 2 180.86 213.275 -5.55112e-17
280 1 109.43 198.739 -5.55112e-17
281 1 44.7853 60.7594 -5.55112e-17
282 1 19.4995 109.298 -5.55112e-17
283 1 116.766 203.807 -5.55112e-17
284 1 212.253 93.7676 -5.55112e-17
285 1 5.30004 79.5021 -5.55112e-17
286 2 37.5207 16.3855 -5.55112e-17
287 1 135.047 74.774 -5.55112e-17
288 1 194.968 1.5022 -5.55112e-17
289 1 1.10354 41.2012 -5.55112e-17
290 1 183.284 155.933 -5.55112e-17
291 1 89.7032 8.93843 -5.55112e-17
292 2 135.233 129.408 -5.55112e-17
293 2 29.7559 82.614 -5.55112e-17
294 1 61.6857 27.4993 -5.55112e-17
295 1 63.2897 151.458 -5.55112e-17
296 1 134.508 187.073 -5.55112e-17
297 1 186.814 59.0896 -5.55112e-17
298 1 189.473 112.902 -5.55112e-17
299 1 110.131 164.487 -5.55112e-17
300 2 24.2217 58.3957 -5.55112e-17
301 1 135.115 39.0528 -5.55112e-17
302 1 107.681 61.7738 -5.55112e-17
303 2 107.165 191.311 -5.55112e-17
304 2 80.0622 109.877 -5.55112e-17
305 1 101.566 217.005 -5.55112e-17
306 1 127.426 1.7577 -5.55112e-17
307 1 108.487 108.132 -5.55112e-17
308 1 155.946 61.7489 -5.55112e-17
309 2 89.7447 185.126 -5.55112e-17
310 1 206.715 53.5319 -5.55112e-17
311 1 124.738 167.151 -5.55112e-17
312 1 89.7206 121.307 -5.55112e-17
313 2 12.4148 60.5549 -5.55112e-17
314 1 189.807 188.529 -5.55112e-17
315 1 127.831 116.874 -5.55112e-17
316 1 158.489 167.53 -5.55112e-17
317 1 135.151 86.6041 -5.55112e-17
318 1 104.2 81.5659 -5.55112e-17
319 1 97.152 151.405 -5.55112e-17
320 1 206.845 111.86 -5.55112e-17
321 1 97.6566 48.7313 -5.55112e-17
322 1 76.5673 84.028 -5.55112e-17
323 1 39.7506 174.406 -5.55112e-17
324 1 48.4749 150.449 -5.55112e-17
325 1 54.7329 178.527 -5.55112e-17
326 1 217.688 28.6684 -5.55112e-17
327 2 141.56 7.95731 -5.55112e-17
328 1 88.9616 82.9896 -5.55112e-17
329 2 66.0009 88.7074 -5.55112e-17
330 1 23.4754 176.3 -5.55112e-17
331 1 102.044 26.3629 -5.55112e-17
332 2 52.5309 157.968 -5.55112e-17
333 1 156.132 149.562 -5.55112e-17
334 1 153.248 48.027 -5.55112e-17
335 1 184.741 44.6896 -5.55112e-17
336 1 149.46 172.576 -5.55112e-17
337 1 102.981 42.7866 -5.55112e-17
338 1 124.442 19.7918 -5.55112e-17
339 1 119.565 200.128 -5.55112e-17
340 1 0.805771 192.015 -5.55112e-17
341 1 167.423 189.53 -5.55112e-17
342 1 27.0299 100.172 -5.55112e-17
343 1 87.9563 52.2622 -5.55112e-17
344 1 50.713 182.6 -5.55112e-17
345 1 81.6077 123.237 -5.55112e-17
346 1 19.7034 135.068 -5.55112e-17
347 1 83.5816 164.932 -5.55112e-17
348 1 174.207 55.2229 -5.55112e-17
349 1 70.5097 16.7485 -5.55112e-17
350 2 128.309 218.047 -5.55112e-17
351 1 111.531 139.096 -5.55112e-17
352 1 17.6063 110.651 -5.55112e-17
353 1 98.9717 86.3274 -5.55112e-17
354 1 168.254 86.758 -5.55112e-17
355 1 4.26428 37.3152 -5.55112e-17
356 1 150.52 126.796 -5.55112e-17
357 1 196.039 143.866 -5.55112e-17
358 1 46.724 62.5181 -5.55112e-17
359 1 73.6504 22.4421 -5.55112e-17
360 1 154.814 215.53 -5.55112e-17
361 1 194.525 180.3 -5.55112e-17
362 1 87.7873 72.4302 -5.55112e-17
363 1 34.7403 146.658 -5.55112e-17
364 2 192.055 58.7091 -5.55112e-17
365 1 58.7143 122.416 -5.55112e-17
366 1 121.43 119.615 -5.55112e-17
367 1 83.4724 117.1 -5.55112e-17
368 1 45.4895 35.1885 -5.55112e-17
369 2 103.613 10.0254 -5.55112e-17
370 1 59.6532 181.821 -5.55112e-17
371 1 142.553 119.24 -5.55112e-17
372 2 177.406 67.2469 -5.55112e-17
373 2 190.764 157.9 -5.55112e-17
374 1 110.791 74.986 -5.55112e-17
375 1 111.739 197.26 -5.55112e-17
376 1 190.04 42.8583 -5.55112e-17
377 1 164.173 98.115 -5.55112e-17
378 1 206.241 138.824 -5.55112e-17
379 1 58.4049 191.051 -5.55112e-17
380 1 89.8736 25.9795 -5.55112e-17
381 1 151.092 161.826 -5.55112e-17
382 1 144.308 127.065 -5.55112e-17
383 1 176.638 143.492 -5.55112e-17
384 1 186.443 181.232 -5.55112e-17
385 1 106.768 25.4069 -5.55112e-17
386 2 110.442 45.7415 -5.55112e-17
387 1 213.526 163.397 -5.55112e-17
388 1 174.554 31.1557 -5.55112e-17
389 1 84.6828 81.5073 -5.55112e-17
390 2 164.535 108.017 -5.55112e-17
391 2 202.587 190.069 -5.55112e-17
392 1 18.755 130 -5.55112e-17
393 1 155.713 166.984 -5.55112e-17
394 1 173.19 159.717 -5.55112e-17
395 1 91.3413 172.227 -5.55112e-17
396 1 73.6999 35.8776 -5.55112e-17
397 1 139.215 82.3598 -5.55112e-17
398 1 66.0621 51.5734 -5.55112e-17
399 1 121.673 160.338 -5.55112e-17
400 1 14.6922 21.7858 -5.55112e-17
401 1 52.7737 16.1641 -5.55112e-17
402 2 37.1501 45.944 -5.55112e-17
403 1 157.766 205.559 -5.55112e-17
404 1 77.852 20.0254 -5.55112e-17
405 1 52.9688 101.896 -5.55112e-17
406 1 145.779 77.1194 -5.55112e-17
407 2 2.10296 147.538 -5.55112e-17
408 1 178.699 148.217 -5.55112e-17
409 1 93.963 63.9229 -5.55112e-17
410 1 109.778 125.356 -5.55112e-17
411 1 3.49003 171.968 -5.55112e-17
412 1 138.942 104.161 -5.55112e-17
413 1 48.6641 13.2023 -5.55112e-17
414 1 104.598 136.065 -5.55112e-17
415 1 123.56 117.632 -5.55112e-17
416 1 57.3933 182.745 -5.55112e-17
417 1 158.961 116.194 -5.55112e-17
418 2 2.79038 6.99874 -5.55112e-17
419 1 173.061 45.2272 -5.55112e-17
420 2 22.329 153.688 -5.55112e-17
421 1 217.142 161.854 -5.55112e-17
422 1 26.2278 0.557711 -5.55112e-17
423 2 16.6249 93.277 -5.55112e-17
424 1 166.684 94.3319 -5.55112e-17
425 1 21.5644 120.248 -5.55112e-17
426 1 208.53 165.029 -5.55112e-17
427 1 212.23 49.6171 -5.55112e-17
428 1 189.759 69.3801 -5.55112e-17
429 1 193.586 214.967 -5.55112e-17
430 1 115.298 169.295 -5.55112e-17
431 1 183.929 217.596 -5.55112e-17
432 1 144.746 215.013 -5.55112e-17
433 1 91.9892 161.327 -5.55112e-17
434 1 32.1937 161.584 -5.55112e-17
435 1 21.3962 186.563 -5.55112e-17
436 1 203.828 129.202 -5.55112e-17
437 1 45.2869 74.4527 -5.55112e-17
438 2 56.3551 63.4851 -5.55112e-17
439 1 70.6931 0.993249 -5.55112e-17
440 1 199.892 84.2083 -5.55112e-17
441 1 0.884849 103.285 -5.55112e-17
442 1 58.7622 68.2342 -5.55112e-17
443 1 109.639 137.352 -5.55112e-17
444 1 35.118 81.7092 -5.55112e-17
445 1 114.249 23.0881 -5.55112e-17
446 1 110.483 116.345 -5.55112e-17
447 1 22.1959 44.7259 -5.55112e-17
448 1 103.022 194.339 -5.55112e-17
449 1 176.847 133.679 -5.55112e-17
450 1 11.4764 117.764 -5.55112e-17
451 1 40.7915 163.213 -5.55112e-17
452 1 171.404 142.237 -5.55112e-17
453 1 74.8311 75.1264 -5.55112e-17
454 1 62.2979 130.209 -5.55112e-17
455 1 185.721 163.223 -5.55112e-17
456 1 118.314 93.618 -5.55112e-17
457 1 25.2044 94.643 -5.55112e-17
458 1 109.434 185.45 -5.55112e-17
459 1 51.438 174.582 -5.55112e-17
460 1 37.0066 104.614 -5.55112e-17
461 1 63.3943 185.959 -5.55112e-17
462 1 188.507 207.466 -5.55112e-17
463 1 51.735 84.1462 -5.55112e-17
464 1 190.793 88.7839 -5.55112e-17
465 1 187.941 83.4678 -5.55112e-17
466 1 44.9986 32.4982 -5.55112e-17
467 1 187.972 131.75 -5.55112e-17
468 1 89.4449 165.527 -5.55112e-17
469 1 160.066 50.8296 -5.55112e-17
470 1 204.952 134.22 -5.55112e-17
471 1 167.04 131.859 -5.55112e-17
472 1 116.885 120.71 -5.55112e-17
473 1 30.797 69.467 -5.55112e-17
474 1 177.395 45.3368 -5.55112e-17
475 1 126.191 213.078 -5.55112e-17
476 2 8.58929 106.754 -5.55112e-17
477 1 147.906 197.785 -5.55112e-17
478 1 168.523 171.781 -5.55112e-17
479 1 125.761 218.706 -5.55112e-17
480 1 134.148 19.2472 -5.55112e-17
481 1 82.9883 64.7894 -5.55112e-17
482 1 215.53 12.8742 -5.55112e-17
483 1 65.6646 198.914 -5.55112e-17
484 2 216.026 127.102 -5.55112e-17
485 1 148.988 179.785 -5.55112e-17
486 1 78.4918 183.696 -5.55112e-17
487 1 202.29 134.575 -5.55112e-17
488 1 36.0918 96.6821 -5.55112e-17
489 1 125.615 181.655 -5.55112e-17
490 1 21.5036 74.5997 -5.55112e-17
491 1 77.084 64.7878 -5.55112e-17
492 1 197.359 153.612 -5.55112e-17
493 1 98.4877 61.8461 -5.55112e-17
494 1 127.043 111.288 -5.55112e-17
495 1 175.907 101.458 -5.55112e-17
496 2 19.7572 93.5659 -5.55112e-17
497 1 174.344 40.1379 -5.55112e-17
498 1 75.1304 164.243 -5.55112e-17
499 2 100.645 107.715 -5.55112e-17
500 1 46.6102 98.2125 -5.55112e-17
501 2 133.881 12.943 -5.55112e-17
502 2 64.16 45.5998 -5.55112e-17
503 1 93.7631 127.01 -5.55112e-17
504 1 130.833 90.0671 -5.55112e-17
505 1 194.828 132.897 -5.55112e-17
506 1 23.3283 150.934 -5.55112e-17
507 1 0.052583 112.418 -5.55112e-17
508 1 204.42 79.8218 -5.55112e-17
509 2 53.3638 161.66 -5.55112e-17
510 2 206.362 131.57 -5.55112e-17
511 1 129.08 212.988 -5.55112e-17
512 2 117.319 178.828 -5.55112e-17
513 1 98.2863 117.514 -5.55112e-17
514 1 20.4834 209.263 -5.55112e-17
515 1 182.481 6.33628 -5.55112e-17
516 1 31.7211 156.526 -5.55112e-17
517 1 166.54 145.254 -5.55112e-17
518 2 177.193 156.686 -5.55112e-17
519 1 68.9876 166.663 -5.55112e-17
520 2 185.208 139.046 -5.55112e-17
521 1 172.986 4.99061 -5.55112e-17
522 1 92.399 183.744 -5.55112e-17
523 1 131.325 153.132 -5.55112e-17
524 1 42.8454 3.0038 -5.55112e-17
525 1 78.4318 57.6953 -5.55112e-17
526 1 8.70797 31.1032 -5.55112e-17
527 1 96.1955 62.7081 -5.55112e-17
528 1 202.541 41.3487 -5.55112e-17
529 1 47.9447 164.547 -5.55112e-17
530 1 217.454 151.97 -5.55112e-17
531 1 24.3022 180.822 -5.55112e-17
532 1 30.6206 183.215 -5.55112e-17
533 1 99.1948 110.638 -5.55112e-17
534 1 30.7704 77.1868 -5.55112e-17
535 1 140.782 151.696 -5.55112e-17
536 1 144.159 42.386 -5.55112e-17
537 1 34.2887 192.043 -5.55112e-17
538 1 32.1922 64.9283 -5.55112e-17
539 1 11.8547 194.36 -5.55112e-17
540 1 42.2984 144.88 -5.55112e-17
541 1 37.3765 63.9226 -5.55112e-17
542 1 96.1556 210.761 -5.55112e-17
543 1 81.1056 41.0237 -5.55112e-17
544 1 183.262 211.714 -5.55112e-17
545 1 21.7081 79.3888 -5.55112e-17
546 1 94.6155 27.9163 -5.55112e-17
547 1 210.281 23.1493 -5.55112e-17
548 1 68.0244 60.1676 -5.55112e-17
549 1 58.5343 85.2719 -5.55112e-17
550 2 31.7415 44.8123 -5.55112e-17
551 2 168.284 186.451 -5.55112e-17
552 2 177.822 141.11 -5.55112e-17
553 1 118.575 192.096 -5.55112e-17
554 1 101.657 96.3915 -5.55112e-17
555 2 82.689 147.421 -5.55112e-17
556 1 124.621 160.548 -5.55112e-17
557 1 107.209 164.163 -5.55112e-17
558 1 14.1845 167.991 -5.55112e-17
559 1 3.08834 48.5757 -5.55112e-17
560 1 88.1035 30.1049 -5.55112e-17
561 1 25.4676 178.137 -5.55112e-17
562 1 120.573 53.9123 -5.55112e-17
563 2 154.052 147.308 -5.55112e-17
564 1 150.633 49.2111 -5.55112e-17
565 1 168.986 1.66638 -5.55112e-17
566 1 119.08 91.2803 -5.55112e-17
567 1 79.4796 8.38714 -5.55112e-17
568 1 208.387 51.4341 -5.55112e-17
569 1 62.6774 207.297 -5.55112e-17
570 1 87.8009 27.5286 -5.55112e-17
571 1 122.27 112.687 -5.55112e-17
572 1 19.4925 22.0339 -5.55112e-17
573 1 64.2355 53.5066 -5.55112e-17
574 1 148.863 57.3321 -5.55112e-17
575 1 167.081 202.659 -5.55112e-17
576 1 80.8115 43.3684 -5.55112e-17
577 1 97.1166 93.2738 -5.55112e-17
578 1 165.535 36.8368 -5.55112e-17
579 1 56.7868 93.5982 -5.55112e-17
580 1 131.515 196.331 -5.55112e-17
581 1 153.103 42.2945 -5.55112e-17
582 1 158.18 82.1439 -5.55112e-17
583 1 125.681 191.314 -5.55112e-17
584 2 42.497 79.4823 -5.55112e-17
585 1 183.597 53.1877 -5.55112e-17
586 1 129.584 46.5141 -5.55112e-17
587 1 9.4168 166.596 -5.55112e-17
588 1 211.537 54.1841 -5.55112e-17
589 1 2.59657 95.1734 -5.55112e-17
590 1 138.661 193.829 -5.55112e-17
591 1 113.276 18.2501 -5.55112e-17
592 1 127.068 206.231 -5.55112e-17
593 1 109.387 81.9553 -5.55112e-17
594 1 177.015 19.0413 -5.55112e-17
595 1 50.9398 146.216 -5.55112e-17
596 1 75.2878 15.0243 -5.55112e-17
597 2 76.5043 121.19 -5.55112e-17
598 1 71.7873 171.174 -5.55112e-17
599 1 2.74376 158.994 -5.55112e-17
600 1 151.046 41.2286 -5.55112e-17
601 1 7.75159 200.003 -5.55112e-17
602 1 182.257 113.657 -5.55112e-17
603 1 129.599 124.384 -5.55112e-17
604 1 174.523 19.6624 -5.55112e-17
605 2 211.446 193.569 -5.55112e-17
606 1 88.6656 99.7871 -5.55112e-17
607 2 3.74969 150.635 -5.55112e-17
608 1 6.45466 62.9948 -5.55112e-17
609 1 77.4469 4.48104 -5.55112e-17
610 1 210.676 89.4662 -5.55112e-17
611 1 4.18028 195.718 -5.55112e-17
612 1 191.644 28.4741 -5.55112e-17
613 1 66.8053 85.3987 -5.55112e-17
614 2 144.671 32.7935 -5.55112e-17
615 1 119.96 133.331 -5.55112e-17
616 1 61.7628 75.9996 -5.55112e-17
617 1 204.496 203.558 -5.55112e-17
618 1 218.02 196.856 -5.55112e-17
619 1 217.067 56.8075 -5.55112e-17
620 1 116.245 64.3145 -5.55112e-17
621 1 59.0552 54.4738 -5.55112e-17
622 1 78.6583 40.0744 -5.55112e-17
623 1 218.946 6.09288 -5.55112e-17
624 1 115.821 137.115 -5.55112e-17
625 1 80.1628 172.437 -5.55112e-17
626 1 195.303 42.9355 -5.55112e-17
627 1 155.363 100.428 -5.55112e-17
628 1 194.125 15.62 -5.55112e-17
629 1 165.239 156.768 -5.55112e-17
630 2 116.441 108.454 -5.55112e-17
631 1 153.926 114.915 -5.55112e-17
632 1 73.0191 111.222 -5.55112e-17
633 1 122.178 2.66994 -5.55112e-17
634 1 162.963 66.27 -5.55112e-17
635 1 179.29 92.9128 -5.55112e-17
636 1 190.98 33.1839 -5.55112e-17
637 1 85.6291 38.7616 -5.55112e-17
638 1 216.315 156.97 -5.55112e-17
639 2 58.0161 88.2214 -5.55112e-17
640 1 31.9336 92.9455 -5.55112e-17
641 1 20.8702 48.9869 -5.55112e-17
642 1 133.291 90.8961 -5.55112e-17
643 2 49.2438 176.428 -5.55112e-17
644 1 139 186.775 -5.55112e-17
645 1 207.158 203.752 -5.55112e-17
646 2 125.667 164.237 -5.55112e-17
647 1 128.159 182.354 -5.55112e-17
648 1 205.112 159.165 -5.55112e-17
649 2 132.354 45.579 -5.55112e-17
650 1 54.7636 45.9586 -5.55112e-17
651 1 6.62647 38.6433 -5.55112e-17
652 1 191.018 183.077 -5.55112e-17
653 1 161.957 33.3758 -5.55112e-17
654 1 23.67 80.9167 -5.55112e-17
655 2 113.53 192.325 -5.55112e-17
656 1 44.3035 97.4194 -5.55112e-17
657 2 98.2339 205.491 -5.55112e-17
658 1 129.032 97.3763 -5.55112e-17
659 2 214.269 213.303 -5.55112e-17
660 1 143.355 195.891 -5.55112e-17
661 1 209.391 123.619 -5.55112e-17
662 1 134.668 2.46269 -5.55112e-17
663 1 147.099 82.3858 -5.55112e-17
664 1 196.733 8.30117 -5.55112e-17
665 1 75.9425 214.011 -5.55112e-17
666 2 74.9849 143.017 -5.55112e-17
667 1 42.1453 25.7073 -5.55112e-17
668 2 196.491 86.0699 -5.55112e-17
669 1 85.8591 15.3773 -5.55112e-17
670 1 1.60274 24.8329 -5.55112e-17
671 2 138.89 79.7793 -5.55112e-17
672 1 40.9724 16.7513 -5.55112e-17
673 1 186.306 141.944 -5.55112e-17
674 1 205.028 126.317 -5.55112e-17
675 1 214.665 140.662 -5.55112e-17
676 1 3.13028 139.815 -5.55112e-17
677 1 190.965 176.345 -5.55112e-17
678 1 50.8301 88.9025 -5.55112e-17
679 2 78.2666 174.96 -5.55112e-17
680 1 81.0279 184.438 -5.55112e-17
681 2 206.224 29.2851 -5.55112e-17
682 1 41.8582 153.87 -5.55112e-17
683 1 153.606 211.587 -5.55112e-17
684 1 184.119 35.4131 -5.55112e-17
685 1 0.628368 96.3902 -5.55112e-17
686 1 180.044 11.0338 -5.55112e-17
687 1 3.24148 179.711 -5.55112e-17
688 1 63.5088 171.235 -5.55112e-17
689 2 50.9088 68.7875 -5.55112e-17
690 1 199.348 164.043 -5.55112e-17
691 1 145.889 147.578 -5.55112e-17
692 1 153.079 95.7996 -5.55112e-17
693 1 67.0202 14.5161 -5.55112e-17
694 1 21.6522 181.935 -5.55112e-17
695 1 165.367 48.3845 -5.55112e-17
696 1 166.928 153.078 -5.55112e-17
697 1 138.943 182.484 -5.55112e-17
698 1 217.08 185.389 -5.55112e-17
699 1 127.729 8.83952 -5.55112e-17
700 1 62.6719 166.431 -5.55112e-17
701 1 218.176 39.3146 -5.55112e-17
702 1 164.956 68.5538 -5.55112e-17
703 2 144.436 67.1534 -5.55112e-17
704 1 153.8 179.369 -5.55112e-17
705 2 75.9747 39.6432 -5.55112e-17
706 1 139.52 69.4648 -5.55112e-17
707 1 168.368 181.093 -5.55112e-17
708 1 64.4457 217.158 -5.55112e-17
709 1 50.7103 49.9684 -5.55112e-17
710 1 148.414 146.944 -5.55112e-17
711 1 36.5915 1.98818 -5.55112e-17
712 1 106.425 67.2439 -5.55112e-17
713 1 122.725 155.635 -5.55112e-17
714 1 6.94174 16.4901 -5.55112e-17
715 1 31.676 16.1058 -5.55112e-17
716 1 1.56081 196.213 -5.55112e-17
717 1 81.3004 127.684 -5.55112e-17
718 1 42.4779 46.6949 -5.55112e-17
719 2 201.714 70.6916 -5.55112e-17
720 1 116.955 95.6682 -5.55112e-17
721 1 35.8449 130.415 -5.55112e-17
722 1 105.604 147.643 -5.55112e-17
723 2 70.9453 100.389 -5.55112e-17
724 1 63.8708 79.9989 -5.55112e-17
725 1 196.246 205.805 -5.55112e-17
726 1 191.465 71.3531 -5.55112e-17
727 1 87.8686 37.7418 -5.55112e-17
728 2 197.397 190.368 -5.55112e-17
729 1 22.4941 94.0833 -5.55112e-17
730 1 113.482 159.462 -5.55112e-17
731 1 81.9574 1.73845 -5.55112e-17
732 1 119.892 123.861 -5.55112e-17
733 1 131.431 176.963 -5.55112e-17
734 1 52.4409 3.04426 -5.55112e-17
735 1 177.261 201.791 -5.55112e-17
736 2 70.2478 146.744 -5.55112e-17
737 1 66.5382 176.521 -5.55112e-17
738 1 164.734 167.657 -5.55112e-17
739 1 141.153 168.884 -5.55112e-17
740 1 1.31282 73.266 -5.55112e-17
741 2 68.0997 49.4516 -5.55112e-17
742 1 93.0503 179.248 -5.55112e-17
743 1 146.677 160.849 -5.55112e-17
744 2 49.0492 41.6713 -5.55112e-17
745 1 210.77 127.938 -5.55112e-17
746 1 65.0519 201.195 -5.55112e-17
747 2 77.9526 147.4 -5.55112e-17
748 1 147.532 177.426 -5.55112e-17
749 1 124.778 149.424 -5.55112e-17
750 1 58.8553 202.932 -5.55112e-17
751 1 172.176 190.437 -5.55112e-17
752 1 40.7835 186.016 -5.55112e-17
753 1 41.1062 48.725 -5.55112e-17
754 1 69.859 205.623 -5.55112e-17
755 1 150.727 94.6316 -5.55112e-17
756 2 183.768 206.079 -5.55112e-17
757 1 214.085 203.267 -5.55112e-17
758 1 214.904 199.815 -5.55112e-17
759 1 171.858 53.7499 -5.55112e-17
760 1 20.9585 96.0629 -5.55112e-17
761 1 217.246 199.198 -5.55112e-17
762 1 9.61157 210.916 -5.55112e-17
763 1 41.4117 85.6456 -5.55112e-17
764 2 192.576 188.047 -5.55112e-17
765 1 159.304 165.438 -5.55112e-17
766 1 59.0706 209.823 -5.55112e-17
767 1 110.676 7.95184 -5.55112e-17
768 1 143.774 104.442 -5.55112e-17
769 1 145.118 14.5314 -5.55112e-17
770 2 53.9819 183.308 -5.55112e-17
771 1 36.7264 150.949 -5.55112e-17
772 1 103.129 74.7139 -5.55112e-17
773 1 96.6296 21.1672 -5.55112e-17
774 1 161.385 199.189 -5.55112e-17
775 1 86.2112 100.619 -5.55112e-17
776 1 178.903 106.69 -5.55112e-17
777 1 172.044 96.315 -5.55112e-17
778 1 67.7857 106.396 -5.55112e-17
779 1 58.913 115.433 -5.55112e-17
780 1 203.755 163.435 -5.55112e-17
781 1 180.512 74.0499 -5.55112e-17
782 1 74.0632 116.645 -5.55112e-17
783 1 11.621 57.7268 -5.55112e-17
784 2 155.306 91.2675 -5.55112e-17
785 1 20.2144 189.048 -5.55112e-17
786 1 65.758 125.757 -5.55112e-17
787 1 143.857 12.1915 -5.55112e-17
788 1 179.708 76.616 -5.55112e-17
789 2 161.939 131.264 -5.55112e-17
790 1 199.301 102.702 -5.55112e-17
791 2 15.2458 31.6695 -5.55112e-17
792 2 125.048 17.2422 -5.55112e-17
793 2 50.6335 128.345 -5.55112e-17
794 1 141.037 134.102 -5.55112e-17
795 1 56.126 85.8851 -5.55112e-17
796 1 20.0183 146.355 -5.55112e-17
797 1 65.6879 207.235 -5.55112e-17
798 2 100.022 91.6445 -5.55112e-17
799 2 161.478 167.256 -5.55112e-17
800 2 158.568 48.4918 -5.55112e-17
801 1 32.5355 58.7155 -5.55112e-17
802 1 35.5881 205.999 -5.55112e-17
803 1 100.364 83.7393 -5.55112e-17
804 2 97.0107 23.6484 -5.55112e-17
805 1 21.4212 136.833 -5.55112e-17
806 1 101.454 121.432 -5.55112e-17
807 2 216.719 21.3237 -5.55112e-17
808 1 122.079 134.157 -5.55112e-17
809 2 205.197 171.636 -5.55112e-17
810 1 92.2003 122.201 -5.55112e-17
811 1 90.3235 44.2655 -5.55112e-17
812 1 169.411 183.633 -5.55112e-17
813 2 0.623657 33.5107 -5.55112e-17
814 1 79.031 119.614 -5.55112e-17
815 1 186.548 39.4098 -5.55112e-17
816 1 64.0262 103.358 -5.55112e-17
817 1 178.773 203.786 -5.55112e-17
818 1 179.352 13.3735 -5.55112e-17
819 1 5.78253 207.575 -5.55112e-17
820 1 37.697 179.79 -5.55112e-17
821 1 33.2259 109.096 -5.55112e-17
822 2 122.493 201.255 -5.55112e-17
823 2 43.8685 63.6566 -5.55112e-17
824 1 9.016 3.54816 -5.55112e-17
825 1 99.7543 25.2159 -5.55112e-17
826 1 144.735 110.897 -5.55112e-17
827 1 73.0317 52.4712 -5.55112e-17
828 1 136.128 151.061 -5.55112e-17
829 1 203.803 68.6365 -5.55112e-17
830 1 181.104 210.426 -5.55112e-17
831 1 38.6021 119.628 -5.55112e-17
832 1 108.842 127.634 -5.55112e-17
833 1 119.066 103.941 -5.55112e-17
834 1 56.5853 66.5509 -5.55112e-17
835 1 207.484 42.3967 -5.55112e-17
836 1 123.11 80.4372 -5.55112e-17
837 1 120.659 126.189 -5.55112e-17
838 1 54.2478 84.0732 -5.55112e-17
839 2 200.899 17.2614 -5.55112e-17
840 1 123.698 4.96487 -5.55112e-17
841 2 82.8587 195.974 -5.55112e-17
842 1 63.8852 96.1857 -5.55112e-17
843 2 98.7819 97.9038 -5.55112e-17
844 1 217.293 129.518 -5.55112e-17
845 1 20.2921 11.6507 -5.55112e-17
846 1 153.651 150.251 -5.55112e-17
847 1 45.3564 69.8963 -5.55112e-17
848 1 146.966 6.11009 -5.55112e-17
849 1 167.638 50.1121 -5.55112e-17
850 1 72.9625 10.6602 -5.55112e-17
851 1 178.963 85.898 -5.55112e-17
852 1 153.087 119.728 -5.55112e-17
853 1 10.6082 96.0272 -5.55112e-17
854 1 188.855 47.303 -5.55112e-17
855 1 32.5738 123.784 -5.55112e-17
856 1 161.179 71.0355 -5.55112e-17