ITEM: TIMESTEP
0
ITEM: NUMBER OF ATOMS
7200
ITEM: BOX BOUNDS xy xz yz pp pp pp
0.0000000000000000e+00 2.1900000000000000e+02 0.0000000000000000e+00
0.0000000000000000e+00 2.1900000000000000e+02 0.0000000000000000e+00
-3.6499999999999999e-01 3.6499999999999999e-01 0.0000000000000000e+00
ITEM: ATOMS id type x y z
1 1 177.751 85.1498 -5.55112e-17
2 1 214.479 47.5755 -5.55112e-17
3 1 4.09584 4.81122 -5.55112e-17
4 1 48.9414 209.124 -5.55112e-17
5 1 23.1522 199.983 -5.55112e-17
6 1 51.658 129.466 -5.55112e-17
7 1 192.259 155.483 -5.55112e-17
8 2 62.6443 138.745 -5.55112e-17
9 1 138.24 80.3179 -5.55112e-17
10 2 168.833 133.34 -5.55112e-17
11 1 46.7259 9.13115 -5.55112e-17
12 1 212.168 108.37 -5.55112e-17
13 2 199.392 218.654 -5.55112e-17
14 1 185.825 3.25049 -5.55112e-17
15 1 31.3268 96.0575 -5.55112e-17
16 2 49.5125 131.812 -5.55112e-17
17 1 19.0042 103.756 -5.55112e-17
18 2 7.74811 206.434 -5.55112e-17
19 1 81.5557 30.7906 -5.55112e-17
20 1 213.298 178.839 -5.55112e-17
21 1 127.711 37.2469 -5.55112e-17
22 2 42.056 11.8267 -5.55112e-17
23 2 148.683 53.8233 -5.55112e-17
24 1 1.00773 167.409 -5.55112e-17
25 1 97.0611 194.768 -5.55112e-17
26 2 172.48 136.011 -5.55112e-17
27 1 154.623 131.901 -5.55112e-17
28 2 145.512 98.9008 -5.55112e-17
29 1 16.3853 79.3095 -5.55112e-17
30 1 107.834 121.742 -5.55112e-17
31 1 118.074 211.733 -5.55112e-17
32 1 33.9053 37.2488 -5.55112e-17
33 1 82.9984 160.052 -5.55112e-17
34 1 171.922 60.0955 -5.55112e-17
35 1 103.026 41.2976 -5.55112e-17
36 1 50.1826 152.043 -5.55112e-17
37 2 64.5561 191.352 -5.55112e-17
38 1 45.4778 95.4597 -5.55112e-17
39 1 57.3878 144.669 -5.55112e-17
40 1 169.422 170.927 -5.55112e-17
41 1 163.912 163.106 -5.55112e-17
42 1 202.323 64.0941 -5.55112e-17
43 1 139.134 202.109 -5.55112e-17
44 1 39.8337 82.6368 -5.55112e-17
45 1 23.8358 162.928 -5.55112e-17
46 1 80.5181 206.904 -5.55112e-17
47 1 87.0381 85.2277 -5.55112e-17
48 2 31.0885 135.919 -5.55112e-17
49 1 196.965 54.7916 -5.55112e-17
50 1 130.585 48.7543 -5.55112e-17
51 1 169.39 102.035 -5.55112e-17
52 1 105.005 18.8525 -5.55112e-17
53 1 79.57 135.891 -5.55112e-17
54 1 95.4861 173.797 -5.55112e-17
55 1 78.8262 57.9848 -5.55112e-17
56 1 63.9998 64.2632 -5.55112e-17
57 2 40.8948 184.625 -5.55112e-17
58 1 160.65 198.254 -5.55112e-17
59 1 88.4923 64.713 -5.55112e-17
60 2 49.8562 211.833 -5.55112e-17
61 2 102.911 184.408 -5.55112e-17
62 1 157.486 141.029 -5.55112e-17
63 1 107.626 159.824 -5.55112e-17
64 1 70.6289 119.401 -5.55112e-17
65 1 5.82775 151.835 -5.55112e-17
66 1 39.4194 48.4608 -5.55112e-17
67 1 164.622 200.532 -5.55112e-17
68 1 79.174 60.5879 -5.55112e-17
69 1 22.6913 213.698 -5.55112e-17
70 1 78.8792 81.7196 -5.55112e-17
71 1 145.001 7.1516 -5.55112e-17
72 1 173.778 184.222 -5.55112e-17
73 1 162.373 122.261 -5.55112e-17
74 1 118.14 52.8081 -5.55112e-17
75 2 47.3279 199.16 -5.55112e-17
76 1 67.7848 32.1189 -5.55112e-17
77 1 217.49 9.9469 -5.55112e-17
78 1 84.3621 27.2393 -5.55112e-17
79 2 164.336 107.691 -5.55112e-17
80 1 22.2833 8.81177 -5.55112e-17
81 1 16.3116 56.5381 -5.55112e-17
82 1 122.509 22.5309 -5.55112e-17
83 2 113.276 125.584 -5.55112e-17
84 1 30.9089 65.8901 -5.55112e-17
85 1 65.7708 104.483 -5.55112e-17
86 1 74.2242 134.671 -5.55112e-17
87 1 6.12934 42.7674 -5.55112e-17
88 1 124.203 96.376 -5.55112e-17
89 2 218.207 70.8992 -5.55112e-17
90 2 202.99 79.1417 -5.55112e-17
91 1 87.2071 121.983 -5.55112e-17
92 2 134.414 16.5135 -5.55112e-17
93 1 118.324 28.5139 -5.55112e-17
94 2 116.612 149.172 -5.55112e-17
95 1 37.9948 61.8655 -5.55112e-17
96 1 51.2864 196.801 -5.55112e-17
97 1 22.5813 71.2711 -5.55112e-17
98 1 103.633 166.18 -5.55112e-17
99 1 206.313 88.1422 -5.55112e-17
100 1 204.918 60.3693 -5.55112e-17
101 1 2.58672 93.4153 -5.55112e-17
102 1 151.708 55.4854 -5.55112e-17
103 1 110.19 1.98971 -5.55112e-17
104 1 124.644 157.748 -5.55112e-17
105 1 197.447 158.103 -5.55112e-17
106 1 125.092 132.248 -5.55112e-17
107 2 20.1465 206.645 -5.55112e-17
108 1 185.424 147.667 -5.55112e-17
109 1 73.8756 14.1295 -5.55112e-17
110 1 111.449 210.795 -5.55112e-17
111 1 214.683 20.4865 -5.55112e-17
112 1 180.544 128.14 -5.55112e-17
113 1 109.667 137.18 -5.55112e-17
114 1 4.65699 199.638 -5.55112e-17
115 1 4.32152 176.635 -5.55112e-17
116 2 105.692 6.13255 -5.55112e-17
117 1 97.8701 133.742 -5.55112e-17
118 1 185.406 97.0891 -5.55112e-17
119 2 184.969 84.9993 -5.55112e-17
120 1 152.554 194.726 -5.55112e-17
121 1 85.6582 119.756 -5.55112e-17
122 1 51.0046 126.937 -5.55112e-17
123 1 55.8998 88.3491 -5.55112e-17
124 1 201.386 188.833 -5.55112e-17
125 1 137.766 151.294 -5.55112e-17
126 1 102.167 176.591 -5.55112e-17
127 1 70.0295 210.751 -5.55112e-17
128 1 88.2979 133.069 -5.55112e-17
129 1 199.74 7.58676 -5.55112e-17
130 1 188.748 55.2061 -5.55112e-17
131 1 135.566 115.377 -5.55112e-17
132 2 36.3362 86.1562 -5.55112e-17
133 1 60.3316 125.371 -5.55112e-17
134 1 79.4494 96.2649 -5.55112e-17
135 1 218.116 181.69 -5.55112e-17
136 1 85.4177 77.7632 -5.55112e-17
137 1 202.25 176.844 -5.55112e-17
138 1 157.447 115.599 -5.55112e-17
139 1 78.6056 148.192 -5.55112e-17
140 2 12.8785 106.296 -5.55112e-17
141 1 44.9764 4.76397 -5.55112e-17
142 2 65.2696 160.182 -5.55112e-17
143 1 210.692 169.03 -5.55112e-17
144 2 111.653 96.0677 -5.55112e-17
145 1 115.987 213.16 -5.55112e-17
146 1 209.802 127.167 -5.55112e-17
147 1 100.357 69.7563 -5.55112e-17
148 1 163.543 104.917 -5.55112e-17
149 1 55.4256 183.393 -5.55112e-17
150 1 137.143 126.742 -5.55112e-17
151 1 21.8387 182.522 -5.55112e-17
152 1 123.828 116.435 -5.55112e-17
153 2 115.283 168.33 -5.55112e-17
154 1 49.1663 214.834 -5.55112e-17
155 1 194.313 17.9271 -5.55112e-17
156 2 178.906 181.697 -5.55112e-17
157 1 108.373 47.5099 -5.55112e-17
158 1 56.3109 166.818 -5.55112e-17
159 1 94.8799 110.024 -5.55112e-17
160 1 101.526 137.774 -5.55112e-17
161 1 167.125 218.424 -5.55112e-17
162 1 132.819 115.601 -5.55112e-17
163 1 47.654 22.0904 -5.55112e-17
164 1 171.736 69.5948 -5.55112e-17
165 1 182.393 192.808 -5.55112e-17
166 2 199.111 113.875 -5.55112e-17
167 1 91.9997 87.5761 -5.55112e-17
168 1 40.9342 142.004 -5.55112e-17
169 1 36.1023 156.603 -5.55112e-17
170 1 176.147 78.6246 -5.55112e-17
171 1 159.019 29.6016 -5.55112e-17
172 1 21.7427 35.6793 -5.55112e-17
173 1 88.9262 83.7812 -5.55112e-17
174 1 38.3621 20.855 -5.55112e-17
175 2 86.8768 55.7733 -5.55112e-17
176 1 95.691 206.517 -5.55112e-17
177 2 121.786 14.6231 -5.55112e-17
178 1 38.3248 164.967 -5.55112e-17
179 1 152.743 78.8277 -5.55112e-17
180 1 172.862 161.172 -5.55112e-17
181 1 120.964 75.0531 -5.55112e-17
182 2 7.19521 197.876 -5.55112e-17
183 1 19.1583 44.953 -5.55112e-17
184 1 167.372 166.041 -5.55112e-17
185 2 128.699 6.23382 -5.55112e-17
186 2 6.77538 47.2296 -5.55112e-17
187 1 87.4462 187.109 -5.55112e-17
188 1 195.336 56.9307 -5.55112e-17
189 1 6.56194 154.232 -5.55112e-17
190 2 143.898 134.371 -5.55112e-17
191 1 88.6855 112.148 -5.55112e-17
192 2 84.8068 97.357 -5.55112e-17
193 2 55.0248 130.542 -5.55112e-17
194 1 14.0362 111.51 -5.55112e-17
195 1 205.364 101.71 -5.55112e-17
196 1 106.039 169.532 -5.55112e-17
197 1 51.5768 90.1883 -5.55112e-17
198 2 16.4539 180.663 -5.55112e-17
199 1 215.04 131.435 -5.55112e-17
200 1 114.506 46.3163 -5.55112e-17
201 2 178.439 80.1456 -5.55112e-17
202 1 165.562 153.633 -5.55112e-17
203 1 124.358 88.4038 -5.55112e-17
204 1 213.636 195.301 -5.55112e-17
205 2 9.27091 159.366 -5.55112e-17
206 1 176.114 182.253 -5.55112e-17
207 1 184.762 169.462 -5.55112e-17
208 1 208.338 28.63 -5.55112e-17
209 1 142.948 71.6594 -5.55112e-17
210 1 160.073 166.767 -5.55112e-17
211 2 214.861 37.6018 -5.55112e-17
212 1 182.744 86.1593 -5.55112e-17
213 1 42.9533 24.163 -5.55112e-17
214 1 6.33767 80.8411 -5.55112e-17
215 1 200.903 17.183 -5.55112e-17
216 1 151.233 22.2097 -5.55112e-17
217 1 135.499 156.385 -5.55112e-17
218 2 113.553 58.9763 -5.55112e-17
219 1 89.6648 46.9605 -5.55112e-17
220 2 42.4831 97.1169 -5.55112e-17
221 1 94.3504 45.4062 -5.55112e-17
222 1 71.825 4.40691 -5.55112e-17
223 1 116.406 183.793 -5.55112e-17
224 2 173.919 34.7264 -5.55112e-17
225 1 23.8485 73.4539 -5.55112e-17
226 1 196.705 78.9546 -5.55112e-17
227 2 19.2823 80.2653 -5.55112e-17
228 1 24.7494 126.182 -5.55112e-17
229 1 62.0512 58.9955 -5.55112e-17
230 1 173.296 154.001 -5.55112e-17
231 1 82.8546 43.8189 -5.55112e-17
232 1 118.405 102.722 -5.55112e-17
233 1 48.3627 52.8496 -5.55112e-17
234 1 173.671 138.563 -5.55112e-17
235 1 73.8478 95.1368 -5.55112e-17
236 1 163.092 51.5517 -5.55112e-17
237 1 102.665 7.21679 -5.55112e-17
238 1 82.2029 53.5823 -5.55112e-17
239 2 202.002 94.8728 -5.55112e-17
240 1 178.866 155.512 -5.55112e-17
241 2 30.6929 216.392 -5.55112e-17
242 2 57.7272 213.517 -5.55112e-17
243 2 0.171235 213.245 -5.55112e-17
244 1 96.5757 146.625 -5.55112e-17
245 1 95.5924 100.052 -5.55112e-17
246 1 112.008 18.1113 -5.55112e-17
247 1 26.3876 163.33 -5.55112e-17
248 1 64.2587 29.1982 -5.55112e-17
249 1 191.948 106.62 -5.55112e-17
250 2 67.702 50.4202 -5.55112e-17
251 1 187.49 200.403 -5.55112e-17
252 1 91.772 25.7948 -5.55112e-17
253 1 112.979 164.702 -5.55112e-17
254 2 120.247 216.894 -5.55112e-17
255 1 161.302 22.3588 -5.55112e-17
256 1 144.327 91.2607 -5.55112e-17
257 1 82.6385 86.8616 -5.55112e-17
258 2 169.732 13.6307 -5.55112e-17
259 1 94.4135 190.686 -5.55112e-17
260 1 7.34289 127.37 -5.55112e-17
261 1 138.336 111.757 -5.55112e-17
262 1 157.113 84.375 -5.55112e-17
263 1 101.991 190.938 -5.55112e-17
264 1 172.11 55.5104 -5.55112e-17
265 1 162.453 126.581 -5.55112e-17
266 1 215.897 42.9475 -5.55112e-17
267 1 176.228 89.0003 -5.55112e-17
268 1 147.169 62.8239 -5.55112e-17
269 1 88.1914 130.634 -5.55112e-17
270 1 55.4757 61.2325 -5.55112e-17
271 1 18.1505 94.8806 -5.55112e-17
272 1 163.922 2.75299 -5.55112e-17
273 1 102.943 84.0697 -5.55112e-17
274 2 98.5054 100.292 -5.55112e-17
275 1 160.89 24.7789 -5.55112e-17
276 2 36.3966 31.5259 -5.55112e-17
277 2 147.201 141.421 -5.55112e-17
278 1 67.8668 20.955 -5.55112e-17
279 2 2.18377 138.896 -5.55112e-17
280 1 125.183 148.478 -5.55112e-17
281 1 1.01507 68.4312 -5.55112e-17
282 1 200.1 207.658 -5.55112e-17
283 1 175.643 21.5423 -5.55112e-17
284 1 217.265 88.8409 -5.55112e-17
285 1 9.93345 76.5855 -5.55112e-17
286 2 155.491 196.306 -5.55112e-17
287 1 164.683 28.3975 -5.55112e-17
288 1 29.2786 19.5614 -5.55112e-17
289 1 40.2796 7.27533 -5.55112e-17
290 1 184.016 183.382 -5.55112e-17
291 1 124.812 209.371 -5.55112e-17
292 2 137.421 117.742 -5.55112e-17
293 2 53.516 75.1861 -5.55112e-17
294 1 88.2576 206.984 -5.55112e-17
295 1 132.089 55.3441 -5.55112e-17
296 1 135.092 99.3257 -5.55112e-17
297 1 160.828 73.3172 -5.55112e-17
298 1 173.383 112.74 -5.55112e-17
299 1 86.7524 134.843 -5.55112e-17
300 2 215.001 86.9135 -5.55112e-17
301 1 79.5763 93.8916 -5.55112e-17
302 1 108.381 132.955 -5.55112e-17
303 2 97.5161 107.857 -5.55112e-17
304 2 72.477 92.3159 -5.55112e-17
305 1 100.697 182.377 -5.55112e-17
306 1 165 156.135 -5.55112e-17
307 1 75.7289 71.8732 -5.55112e-17
308 1 167.731 11.2115 -5.55112e-17
309 2 96.0063 131.113 -5.55112e-17
310 1 38.8431 90.4827 -5.55112e-17
311 1 97.716 120.589 -5.55112e-17
312 1 100.789 102.027 -5.55112e-17
313 2 43.4121 100.631 -5.55112e-17
314 1 129.816 187.467 -5.55112e-17
315 1 150.059 139.901 -5.55112e-17
316 1 18.2596 185.889 -5.55112e-17
317 1 106.104 68.5571 -5.55112e-17
318 1 14.216 46.2696 -5.55112e-17
319 1 89.7786 153.675 -5.55112e-17
320 1 143.29 113.938 -5.55112e-17
321 1 33.9501 40.2093 -5.55112e-17
322 1 32.2653 72.1733 -5.55112e-17
323 1 5.84287 125.497 -5.55112e-17
324 1 163.142 173.817 -5.55112e-17
325 1 81.0728 172.617 -5.55112e-17
326 1 28.4785 102.268 -5.55112e-17
327 2 133.614 212.667 -5.55112e-17
328 1 111.731 74.9932 -5.55112e-17
329 2 79.5095 143.173 -5.55112e-17
330 1 42.7033 107.795 -5.55112e-17
331 1 79.2392 53.5304 -5.55112e-17
332 2 89.4049 139.202 -5.55112e-17
333 1 182.088 158.831 -5.55112e-17
334 1 188.966 64.3065 -5.55112e-17
335 1 214.158 106.113 -5.55112e-17
336 1 31.8776 176.801 -5.55112e-17
337 1 135.78 48.142 -5.55112e-17
338 1 154.692 46.443 -5.55112e-17
339 1 114.113 198.084 -5.55112e-17
340 1 202.088 11.5179 -5.55112e-17
341 1 119.5 1.09419 -5.55112e-17
342 1 149.079 154.796 -5.55112e-17
343 1 129.507 29.8531 -5.55112e-17
344 1 19.8895 187.483 -5.55112e-17
345 1 60.9351 100.603 -5.55112e-17
346 1 211.901 158.536 -5.55112e-17
347 1 59.3072 116.644 -5.55112e-17
348 1 161.025 58.5981 -5.55112e-17
349 1 96.6835 214.82 -5.55112e-17
350 2 174.637 70.2629 -5.55112e-17
351 1 108.066 162.326 -5.55112e-17
352 1 202.177 6.70715 -5.55112e-17
353 1 83.0936 76.3462 -5.55112e-17
354 1 134.84 158.612 -5.55112e-17
355 1 30.023 147.806 -5.55112e-17
356 1 108.696 198.658 -5.55112e-17
357 1 188.708 179.866 -5.55112e-17
358 1 21.584 60.7269 -5.55112e-17
359 1 121.718 11.7506 -5.55112e-17
360 1 5.88192 37.8194 -5.55112e-17
361 1 129.697 35.0625 -5.55112e-17
362 1 60.0446 66.546 -5.55112e-17
363 1 208.675 121.942 -5.55112e-17
364 2 168.832 41.1611 -5.55112e-17
365 1 202.967 106.799 -5.55112e-17
366 1 107.796 70.4506 -5.55112e-17
367 1 52.5055 131.584 -5.55112e-17
368 1 71.1981 208.239 -5.55112e-17
369 2 112.087 218.27 -5.55112e-17
370 1 53.344 199.6 -5.55112e-17
371 1 197.285 44.2214 -5.55112e-17
372 2 118.654 98.0225 -5.55112e-17
373 2 8.3816 185.468 -5.55112e-17
374 1 122.387 70.1272 -5.55112e-17
375 1 109.011 218.722 -5.55112e-17
376 1 164.088 8.68412 -5.55112e-17
377 1 185.065 114.886 -5.55112e-17
378 1 27.7259 205.006 -5.55112e-17
379 1 62.2269 8.06726 -5.55112e-17
380 1 76.4566 22.7017 -5.55112e-17
381 1 131.556 180.394 -5.55112e-17
382 1 136.05 169.27 -5.55112e-17
383 1 117.29 197.328 -5.55112e-17
384 1 6.26531 0.796981 -5.55112e-17
385 1 174.08 42.6972 -5.55112e-17
386 2 160.758 49.8638 -5.55112e-17
387 1 211.053 195.321 -5.55112e-17
388 1 206.508 175.623 -5.55112e-17
389 1 212.913 120.959 -5.55112e-17
390 2 195.043 64.2647 -5.55112e-17
391 2 192.954 3.82511 -5.55112e-17
392 1 192.733 186.521 -5.55112e-17
393 1 151.615 158.142 -5.55112e-17
394 1 183.414 206.051 -5.55112e-17
395 1 119.948 161.662 -5.55112e-17
396 1 76.9347 218.55 -5.55112e-17
397 1 47.6992 96.9235 -5.55112e-17
398 1 39.1653 30.4359 -5.55112e-17
399 1 133.164 120.624 -5.55112e-17
400 1 44.6285 7.47233 -5.55112e-17
401 1 38.0162 26.0757 -5.55112e-17
402 2 55.257 34.8287 -5.55112e-17
403 1 202.557 208.747 -5.55112e-17
404 1 97.9564 167.225 -5.55112e-17
405 1 47.4528 80.7171 -5.55112e-17
406 1 179.275 32.2444 -5.55112e-17
407 2 19.8276 193.707 -5.55112e-17
408 1 201.732 197.774 -5.55112e-17
409 1 42.5232 73.7572 -5.55112e-17
410 1 101.384 99.3743 -5.55112e-17
411 1 85.3572 210.198 -5.55112e-17
412 1 170.702 153.564 -5.55112e-17
413 1 5.30378 213.333 -5.55112e-17
414 1 98.326 160.216 -5.55112e-17
415 1 136.147 112.86 -5.55112e-17
416 1 20.8486 91.2207 -5.55112e-17
417 1 174.768 119.171 -5.55112e-17
418 2 187.234 12.23 -5.55112e-17
419 1 1.11012 76.6348 -5.55112e-17
420 2 61.2203 151.839 -5.55112e-17
421 1 22.9357 153.197 -5.55112e-17
422 1 58.926 215.828 -5.55112e-17
423 2 3.6009 154.071 -5.55112e-17
424 1 195.769 110.071 -5.55112e-17
425 1 196.113 105.113 -5.55112e-17
426 1 147.042 120.896 -5.55112e-17
427 1 18.9329 37.4164 -5.55112e-17
428 1 40.2919 95.0756 -5.55112e-17
429 1 184.477 11.4763 -5.55112e-17
430 1 168.394 93.1122 -5.55112e-17
431 1 127.098 175.025 -5.55112e-17
432 1 140.037 209.543 -5.55112e-17
433 1 81.8597 122.489 -5.55112e-17
434 1 21.8576 116.198 -5.55112e-17
435 1 31.647 158.426 -5.55112e-17
436 1 36.0435 199.005 -5.55112e-17
437 1 143.288 79.0715 -5.55112e-17
438 2 71.0494 13.2063 -5.55112e-17
439 1 37.3323 191.78 -5.55112e-17
440 1 159.638 77.9218 -5.55112e-17
441 1 141.142 118.236 -5.55112e-17
442 1 39.0768 12.48 -5.55112e-17
443 1 87.0643 153.716 -5.55112e-17
444 1 202.068 102.916 -5.55112e-17
445 1 106.777 27.2448 -5.55112e-17
446 1 126.207 79.1666 -5.55112e-17
447 1 58.0612 23.316 -5.55112e-17
448 1 185.53 35.2034 -5.55112e-17
449 1 165.28 112.809 -5.55112e-17
450 1 199.888 89.6658 -5.55112e-17
451 1 213.125 168.229 -5.55112e-17
452 1 176.228 177.235 -5.55112e-17
453 1 109.759 93.4376 -5.55112e-17
454 1 7.99263 162.168 -5.55112e-17
455 1 73.8206 169.654 -5.55112e-17
456 1 178.988 63.957 -5.55112e-17
457 1 13.0132 163.231 -5.55112e-17
458 1 138.475 145.379 -5.55112e-17
459 1 68.9235 55.8292 -5.55112e-17
460 1 32.9398 133.44 -5.55112e-17
461 1 96.4143 85.1375 -5.55112e-17
462 1 198.216 20.8184 -5.55112e-17
463 1 0.779195 97.9543 -5.55112e-17
464 1 189.84 78.1068 -5.55112e-17
465 1 19.8711 88.6467 -5.55112e-17
466 1 37.9119 218.293 -5.55112e-17
467 1 77.5003 109.486 -5.55112e-17
468 1 62.3548 91.4743 -5.55112e-17
469 1 165.282 53.3369 -5.55112e-17
470 1 190.965 213.553 -5.55112e-17
471 1 101.828 151.138 -5.55112e-17
472 1 107.301 94.0332 -5.55112e-17
473 1 49.4691 138.549 -5.55112e-17
474 1 120.861 46.5549 -5.55112e-17
475 1 145.717 215.935 -5.55112e-17
476 2 134.598 181.033 -5.55112e-17
477 1 75.6456 176.614 -5.55112e-17
478 1 12.2183 18.7723 -5.55112e-17
479 1 185.706 173.165 -5.55112e-17
480 1 127.369 34.4263 -5.55112e-17
481 1 126.545 95.4607 -5.55112e-17
482 1 181.093 196.993 -5.55112e-17
483 1 150.958 135.18 -5.55112e-17
484 2 177.74 150.069 -5.55112e-17
485 1 214.001 206.586 -5.55112e-17
486 1 153.683 179.669 -5.55112e-17
487 1 202.996 76.3046 -5.55112e-17
488 1 210.85 148.242 -5.55112e-17
489 1 101.473 146.421 -5.55112e-17
490 1 45.9961 71.3446 -5.55112e-17
491 1 81.3855 61.3544 -5.55112e-17
492 1 45.0238 197.917 -5.55112e-17
493 1 170.972 65.5643 -5.55112e-17
494 1 122.707 61.403 -5.55112e-17
495 1 142.65 116.305 -5.55112e-17
496 2 20.7848 19.199 -5.55112e-17
497 1 63.6236 40.8411 -5.55112e-17
498 1 83.0964 146.864 -5.55112e-17
499 2 81.8226 58.3644 -5.55112e-17
500 1 83.1141 55.8518 -5.55112e-17
501 2 149.482 202.968 -5.55112e-17
502 2 107.013 24.0032 -5.55112e-17
503 1 89.1734 53.9888 -5.55112e-17
504 1 110.744 86.7487 -5.55112e-17
505 1 22.9984 130.345 -5.55112e-17
506 1 1.50992 141.637 -5.55112e-17
507 1 216.196 116.752 -5.55112e-17
508 1 172.754 67.421 -5.55112e-17
509 2 96.3686 26.082 -5.55112e-17
510 2 17.0789 9.67627 -5.55112e-17
511 1 157.166 214.959 -5.55112e-17
512 2 139.39 148.387 -5.55112e-17
513 1 98.9814 123.082 -5.55112e-17
514 1 4.82363 24.9462 -5.55112e-17
515 1 43.9199 47.3833 -5.55112e-17
516 1 60.6981 74.2797 -5.55112e-17
517 1 64.9554 186.619 -5.55112e-17
518 2 205.205 177.996 -5.55112e-17
519 1 67.3956 126.86 -5.55112e-17
520 2 134.609 188.446 -5.55112e-17
521 1 175.349 207.859 -5.55112e-17
522 1 142.703 93.5263 -5.55112e-17
523 1 161.627 164.624 -5.55112e-17
524 1 80.1356 201.538 -5.55112e-17
525 1 84.4455 24.4083 -5.55112e-17
526 1 36.3266 36.875 -5.55112e-17
527 1 169.796 86.2437 -5.55112e-17
528 1 3.47612 29.1791 -5.55112e-17
529 1 71.8998 133.863 -5.55112e-17
530 1 196.824 214.148 -5.55112e-17
531 1 200.147 175.611 -5.55112e-17
532 1 69.722 193.492 -5.55112e-17
533 1 84.7806 72.6574 -5.55112e-17
534 1 76.9887 100.128 -5.55112e-17
535 1 140.204 130.509 -5.55112e-17
536 1 156.533 122.379 -5.55112e-17
537 1 16.0237 203.207 -5.55112e-17
538 1 32.4137 52.4047 -5.55112e-17
539 1 1.13675 186.418 -5.55112e-17
540 1 8.50463 164.585 -5.55112e-17
541 1 2.8562 83.7644 -5.55112e-17
542 1 81.7246 191.028 -5.55112e-17
543 1 89.3498 29.572 -5.55112e-17
544 1 150.264 16.6882 -5.55112e-17
545 1 24.1305 61.8346 -5.55112e-17
546 1 117.768 3.05447 -5.55112e-17
547 1 217.841 16.8622 -5.55112e-17
548 1 68.3415 103.995 -5.55112e-17
549 1 72.2005 18.8318 -5.55112e-17
550 2 13.3245 52.4532 -5.55112e-17
551 2 122.884 162.663 -5.55112e-17
552 2 168.812 114.553 -5.55112e-17
553 1 117.485 186.883 -5.55112e-17
554 1 65.4593 162.904 -5.55112e-17
555 2 46.0621 124.659 -5.55112e-17
556 1 98.8967 151.373 -5.55112e-17
557 1 134.739 125.205 -5.55112e-17
558 1 54.3227 187.718 -5.55112e-17
559 1 49.2215 204.723 -5.55112e-17
560 1 20.3773 42.6851 -5.55112e-17
561 1 1.09722 152.084 -5.55112e-17
562 1 50.1268 69.0149 -5.55112e-17
563 2 107.601 91.2757 -5.55112e-17
564 1 128.227 9.21978 -5.55112e-17
565 1 154.167 29.804 -5.55112e-17
566 1 41.34 17.2857 -5.55112e-17
567 1 53.1253 152.523 -5.55112e-17
568 1 57.9871 209.61 -5.55112e-17
569 1 165.071 25.8142 -5.55112e-17
570 1 50.0751 56.6802 -5.55112e-17
571 1 128.835 79.9133 -5.55112e-17
572 1 6.53054 32.7232 -5.55112e-17
573 1 110.038 43.1571 -5.55112e-17
574 1 195.488 52.7683 -5.55112e-17
575 1 10.0423 45.8306 -5.55112e-17
576 1 68.7528 11.3287 -5.55112e-17
577 1 38.2005 80.8585 -5.55112e-17
578 1 146.974 72.5676 -5.55112e-17
579 1 49.4561 58.942 -5.55112e-17
580 1 118.219 32.0022 -5.55112e-17
581 1 175.199 73.2717 -5.55112e-17
582 1 162.127 145.022 -5.55112e-17
583 1 102.183 15.51 -5.55112e-17
584 2 51.2993 61.2511 -5.55112e-17
585 1 78.298 216.286 -5.55112e-17
586 1 73.395 81.0321 -5.55112e-17
587 1 8.58349 4.69799 -5.55112e-17
588 1 0.503632 128.675 -5.55112e-17
589 1 199.486 33.8622 -5.55112e-17
590 1 124.226 193.595 -5.55112e-17
591 1 64.6155 59.3382 -5.55112e-17
592 1 27.4218 195.008 -5.55112e-17
593 1 184.875 47.8447 -5.55112e-17
594 1 197.059 11.3686 -5.55112e-17
595 1 115.253 120.744 -5.55112e-17
596 1 57.8146 4.68393 -5.55112e-17
597 2 148.575 214.641 -5.55112e-17
598 1 71.3977 95.1999 -5.55112e-17
599 1 33.1698 76.5249 -5.55112e-17
600 1 48.8922 48.741 -5.55112e-17
601 1 0.98092 203.523 -5.55112e-17
602 1 176.697 190.35 -5.55112e-17
603 1 54.3176 175.84 -5.55112e-17
604 1 153.811 74.3756 -5.55112e-17
605 2 180.293 3.61719 -5.55112e-17
606 1 102.459 97.1405 -5.55112e-17
607 2 184.689 176.659 -5.55112e-17
608 1 195.965 147.738 -5.55112e-17
609 1 84.0665 134.162 -5.55112e-17
610 1 185.05 77.5711 -5.55112e-17
611 1 68.8054 28.0044 -5.55112e-17
612 1 146.895 8.94044 -5.55112e-17
613 1 59.2869 76.3451 -5.55112e-17
614 2 149.229 34.1218 -5.55112e-17
615 1 91.8101 180.859 -5.55112e-17
616 1 110.62 52.3351 -5.55112e-17
617 1 164.474 183.612 -5.55112e-17
618 1 202.845 171.397 -5.55112e-17
619 1 58.4654 88.3089 -5.55112e-17
620 1 27.2756 38.8383 -5.55112e-17
621 1 49.3161 5.33287 -5.55112e-17
622 1 118.329 39.7564 -5.55112e-17
623 1 21.4987 11.432 -5.55112e-17
624 1 149.089 64.0268 -5.55112e-17
625 1 74.398 83.4055 -5.55112e-17
626 1 4.69845 137.461 -5.55112e-17
627 1 187.282 46.6833 -5.55112e-17
628 1 69.842 185.177 -5.55112e-17
629 1 171.048 180.843 -5.55112e-17
630 2 151.002 105.322 -5.55112e-17
631 1 168.375 104.281 -5.55112e-17
632 1 53.0491 66.9115 -5.55112e-17
633 1 145.483 213.572 -5.55112e-17
634 1 174.933 12.4583 -5.55112e-17
635 1 209.431 22.9839 -5.55112e-17
636 1 7.63946 93.6675 -5.55112e-17
637 1 50.8325 44.2561 -5.55112e-17
638 1 185.358 218.049 -5.55112e-17
639 2 26.1932 46.8494 -5.55112e-17
640 1 190.145 149.316 -5.55112e-17
641 1 163.129 39.7563 -5.55112e-17
642 1 20.1028 70.7693 -5.55112e-17
643 2 98.5803 205.904 -5.55112e-17
644 1 139.988 116.241 -5.55112e-17
645 1 163.315 24.2073 -5.55112e-17
646 2 132.371 162.711 -5.55112e-17
647 1 96.0795 168.527 -5.55112e-17
648 1 167.248 200.601 -5.55112e-17
649 2 156.932 31.6222 -5.55112e-17
650 1 212.441 89.463 -5.55112e-17
651 1 1.61087 42.1976 -5.55112e-17
652 1 214.45 154.982 -5.55112e-17
653 1 182.787 34.918 -5.55112e-17
654 1 23.0117 165.176 -5.55112e-17
655 2 111.064 128.593 -5.55112e-17
656 1 98.0841 67.8346 -5.55112e-17
657 2 73.1252 21.9022 -5.55112e-17
658 1 144.678 83.8885 -5.55112e-17
659 2 1.04731 35.8304 -5.55112e-17
660 1 176.115 46.7854 -5.55112e-17
661 1 4.47451 106.095 -5.55112e-17
662 1 157.15 175.865 -5.55112e-17
663 1 141.07 155.089 -5.55112e-17
664 1 5.09645 44.9851 -5.55112e-17
665 1 109.887 152.361 -5.55112e-17
666 2 18.0997 121.116 -5.55112e-17
667 1 54.9038 213.536 -5.55112e-17
668 2 1.97963 45.2195 -5.55112e-17
669 1 66.6179 55.3549 -5.55112e-17
670 1 21.5442 103.988 -5.55112e-17
671 2 164.112 45.2862 -5.55112e-17
672 1 63.5155 209.188 -5.55112e-17
673 1 214.024 157.42 -5.55112e-17
674 1 179.924 142.423 -5.55112e-17
675 1 136.784 171.448 -5.55112e-17
676 1 177.702 167.322 -5.55112e-17
677 1 154.356 201.749 -5.55112e-17
678 1 14.4308 43.8132 -5.55112e-17
679 2 38.1685 128.693 -5.55112e-17
680 1 70.7372 166.601 -5.55112e-17
681 2 21.3853 32.7843 -5.55112e-17
682 1 66.1395 109.006 -5.55112e-17
683 1 139.026 132.73 -5.55112e-17
684 1 212.293 19.012 -5.55112e-17
685 1 26.5286 124.056 -5.55112e-17
686 1 28.3306 199.982 -5.55112e-17
687 1 21.2043 49.1263 -5.55112e-17
688 1 46.251 65.8354 -5.55112e-17
689 2 43.9084 89.5103 -5.55112e-17
690 1 88.1117 146.622 -5.55112e-17
691 1 84.6828 126.78 -5.55112e-17
692 1 204.122 139.093 -5.55112e-17
693 1 122.626 32.3109 -5.55112e-17
694 1 30.8119 169.966 -5.55112e-17
695 1 172.218 72.0117 -5.55112e-17
696 1 32.1869 167.6 -5.55112e-17
697 1 211.725 208.562 -5.55112e-17
698 1 181.735 182.933 -5.55112e-17
699 1 149.126 167.356 -5.55112e-17
700 1 218.465 160.341 -5.55112e-17
701 1 5.2632 62.4956 -5.55112e-17
702 1 19.2121 34.9427 -5.55112e-17
703 2 128.01 204.436 -5.55112e-17
704 1 160.931 128.624 -5.55112e-17
705 2 55.7435 68.2646 -5.55112e-17
706 1 85.8632 64.4801 -5.55112e-17
707 1 115.008 25.2114 -5.55112e-17
708 1 100.125 149.069 -5.55112e-17
709 1 52.1779 111.326 -5.55112e-17
710 1 116.234 129.522 -5.55112e-17
711 1 9.86391 71.8518 -5.55112e-17
712 1 96.4184 63.5643 -5.55112e-17
713 1 91.4678 197.865 -5.55112e-17
714 1 75.8872 45.6991 -5.55112e-17
715 1 8.89292 64.5943 -5.55112e-17
716 1 51.5775 163.928 -5.55112e-17
717 1 49.6469 124.642 -5.55112e-17
718 1 70.7942 26.5093 -5.55112e-17
719 2 181.042 91.3744 -5.55112e-17
720 1 149.657 75.2231 -5.55112e-17
721 1 208.616 174.132 -5.55112e-17
722 1 105.143 109.321 -5.55112e-17
723 2 82.5514 89.8603 -5.55112e-17
724 1 70.9002 113.797 -5.55112e-17
725 1 203.212 43.7315 -5.55112e-17
726 1 215.776 65.4628 -5.55112e-17
727 1 60.6556 3.72807 -5.55112e-17
728 2 136.6 166.186 -5.55112e-17
729 1 16.8164 84.2806 -5.55112e-17
730 1 99.8747 135.54 -5.55112e-17
731 1 25.2718 170.235 -5.55112e-17
732 1 130.588 76.1416 -5.55112e-17
733 1 163.267 14.1306 -5.55112e-17
734 1 202.823 54.1968 -5.55112e-17
735 1 143.929 42.9905 -5.55112e-17
736 2 34.1691 123.134 -5.55112e-17
737 1 53.1677 161.965 -5.55112e-17
738 1 104.218 197.661 -5.55112e-17
739 1 162.842 166.721 -5.55112e-17
740 1 12.1432 94.643 -5.55112e-17
741 2 117.446 42.3822 -5.55112e-17
742 1 103.377 89.5727 -5.55112e-17
743 1 210.824 177.895 -5.55112e-17
744 2 101.931 77.2238 -5.55112e-17
745 1 104.556 111.906 -5.55112e-17
746 1 55.7299 152.791 -5.55112e-17
747 2 109.024 88.6914 -5.55112e-17
748 1 194.901 36.9303 -5.55112e-17
749 1 92.4818 120.836 -5.55112e-17
750 1 64.4741 211.539 -5.55112e-17
751 1 171.414 214.895 -5.55112e-17
752 1 93.0075 9.12007 -5.55112e-17
753 1 177.151 30.8414 -5.55112e-17
754 1 37.6444 118.987 -5.55112e-17
755 1 161.717 106.735 -5.55112e-17
756 2 98.4365 183.858 -5.55112e-17
757 1 11.1573 54.226 -5.55112e-17
758 1 123.16 212.083 -5.55112e-17
759 1 186.195 90.0497 -5.55112e-17
760 1 179.602 157.938 -5.55112e-17
761 1 204.201 198.761 -5.55112e-17
762 1 2.5401 201.213 -5.55112e-17
763 1 12.6592 113.47 -5.55112e-17
764 2 186.135 197.979 -5.55112e-17
765 1 145.702 181.926 -5.55112e-17
766 1 95.5096 133.874 -5.55112e-17
767 1 130.07 185.062 -5.55112e-17
768 1 167.246 70.2599 -5.55112e-17
769 1 194.936 171.093 -5.55112e-17
770 2 79.6528 0.568345 -5.55112e-17
771 1 42.8807 139.954 -5.55112e-17
772 1 80.894 212.032 -5.55112e-17
773 1 114.988 48.5846 -5.55112e-17
774 1 158.394 7.35285 -5.55112e-17
775 1 187.26 119.837 -5.55112e-17
776 1 196.552 112.501 -5.55112e-17
777 1 215.875 121.793 -5.55112e-17
778 1 182.87 141.566 -5.55112e-17
779 1 34.6513 83.8605 -5.55112e-17
780 1 185.559 150.18 -5.55112e-17
781 1 138.055 114.733 -5.55112e-17
782 1 97.0985 44.9292 -5.55112e-17
783 1 4.87988 78.541 -5.55112e-17
784 2 154.781 41.7941 -5.55112e-17
785 1 61.4729 176.034 -5.55112e-17
786 1 205.844 165.041 -5.55112e-17
787 1 169.438 44.0104 -5.55112e-17
788 1 204.775 74.6208 -5.55112e-17
789 2 183.621 126.045 -5.55112e-17
790 1 164.46 171.137 -5.55112e-17
791 2 75.2055 38.5882 -5.55112e-17
792 2 146.728 57.02 -5.55112e-17
793 2 12.5255 134.448 -5.55112e-17
794 1 125.183 155.276 -5.55112e-17
795 1 7.21391 120.993 -5.55112e-17
796 1 48.1396 147.17 -5.55112e-17
797 1 31.9222 179.23 -5.55112e-17
798 2 65.1344 52.8513 -5.55112e-17
799 2 130.939 9.71546 -5.55112e-17
800 2 138.541 37.1041 -5.55112e-17
801 1 99.5227 30.222 -5.55112e-17
802 1 210.434 190.622 -5.55112e-17
803 1 153.343 64.7015 -5.55112e-17
804 2 59.9201 16.3663 -5.55112e-17
805 1 29.385 190.144 -5.55112e-17
806 1 97.9634 110.713 -5.55112e-17
807 2 1.04634 110.234 -5.55112e-17
808 1 120.706 49.0345 -5.55112e-17
809 2 210.304 171.956 -5.55112e-17
810 1 16.5631 123.693 -5.55112e-17
811 1 72.8952 177.041 -5.55112e-17
812 1 149.518 61.5098 -5.55112e-17
813 2 213.563 41.0375 -5.55112e-17
814 1 115.942 68.2503 -5.55112e-17
815 1 174.249 56.8236 -5.55112e-17
816 1 142.713 106.749 -5.55112e-17
817 1 184.471 1.15571 -5.55112e-17
818 1 206.782 30.8306 -5.55112e-17
819 1 28.6079 61.5664 -5.55112e-17
820 1 108.002 174.302 -5.55112e-17
821 1 103.675 195.183 -5.55112e-17
822 2 104.687 60.9135 -5.55112e-17
823 2 61.2654 61.6954 -5.55112e-17
824 1 181.648 39.4069 -5.55112e-17
825 1 166.164 210.091 -5.55112e-17
826 1 172.69 106.464 -5.55112e-17
827 1 72.4177 89.1092 -5.55112e-17
828 1 129.515 101.248 -5.55112e-17
829 1 186.328 106.192 -5.55112e-17
830 1 15.7434 50.9306 -5.55112e-17
831 1 98.6794 131.357 -5.55112e-17
832 1 111.796 101.079 -5.55112e-17
833 1 155.26 79.0893 -5.55112e-17
834 1 35.1892 56.3549 -5.55112e-17
835 1 17.649 65.6544 -5.55112e-17
836 1 104.329 66.3464 -5.55112e-17
837 1 130.709 147.393 -5.55112e-17
838 1 36.3196 137.228 -5.55112e-17
839 2 217.089 27.4978 -5.55112e-17
840 1 113.627 9.00494 -5.55112e-17
841 2 139.566 122.797 -5.55112e-17
842 1 123.616 103.381 -5.55112e-17
843 2 143.331 49.9397 -5.55112e-17
844 1 36.3623 125.678 -5.55112e-17
845 1 188.939 117.454 -5.55112e-17
846 1 166.877 102.51 -5.55112e-17
847 1 78.1525 50.9178 -5.55112e-17
848 1 151.137 210.114 -5.55112e-17
849 1 184.937 5.7919 -5.55112e-17
850 1 32.0988 185.611 -5.55112e-17
851 1 193.86 66.9586 -5.55112e-17
852 1 148.109 111.731 -5.55112e-17
853 1 211.88 87.1043 -5.55112e-17
854 1 194.544 88.0331 -5.55112e-17
855 1 8.863 142.971 -5.55112e-17
856 1 180.365 27.2126 -5.55112e-17