ITEM: TIMESTEP
0
ITEM: NUMBER OF ATOMS
7200
ITEM: BOX BOUNDS xy xz yz pp pp pp
0.0000000000000000e+00 2.1900000000000000e+02 0.0000000000000000e+00
0.0000000000000000e+00 2.1900000000000000e+02 0.0000000000000000e+00
-3.6499999999999999e-01 3.6499999999999999e-01 0.0000000000000000e+00
ITEM: ATOMS id type x y z
1 1 166.465 97.8326 -5.55112e-17
2 1 94.6411 155.953 -5.55112e-17
3 1 107.775 3.56917 -5.55112e-17
4 1 124.886 9.07775 -5.55112e-17
5 1 214.805 171.069 -5.55112e-17
6 1 33.4794 151.634 -5.55112e-17
7 1 55.7555 70.6515 -5.55112e-17
8 2 209.019 144.563 -5.55112e-17
9 1 202.905 43.8386 -5.55112e-17
10 2 174.065 186.195 -5.55112e-17
11 1 146.562 48.5602 -5.55112e-17
12 1 146.145 193.809 -5.55112e-17
13 2 126.32 70.9234 -5.55112e-17
14 1 165.819 37.2392 -5.55112e-17
15 1 86.209 26.2069 -5.55112e-17
16 2 74.6028 98.212 -5.55112e-17
17 1 15.0422 149.407 -5.55112e-17
18 2 194.147 178.904 -5.55112e-17
19 1 200.888 58.4357 -5.55112e-17
20 1 165.04 133.278 -5.55112e-17
21 1 105.536 209.446 -5.55112e-17
22 2 90.3097 202.988 -5.55112e-17
23 2 132.414 64.6671 -5.55112e-17
24 1 34.2488 29.4707 -5.55112e-17
25 1 37.9254 127.047 -5.55112e-17
26 2 176.839 136.564 -5.55112e-17
27 1 102.066 123.459 -5.55112e-17
28 2 63.6457 107.228 -5.55112e-17
29 1 184.646 19.8466 -5.55112e-17
30 1 164.925 215.555 -5.55112e-17
31 1 95.7659 114.422 -5.55112e-17
32 1 191.261 46.5341 -5.55112e-17
33 1 102.176 12.6368 -5.55112e-17
34 1 165.807 72.3026 -5.55112e-17
35 1 123.097 67.0586 -5.55112e-17
36 1 35.765 83.7847 -5.55112e-17
37 2 91.4052 19.1162 -5.55112e-17
38 1 131.264 61.5308 -5.55112e-17
39 1 210.742 129.396 -5.55112e-17
40 1 32.7643 139.971 -5.55112e-17
41 1 21.4953 174.934 -5.55112e-17
42 1 16.4293 48.9511 -5.55112e-17
43 1 63.3072 45.5095 -5.55112e-17
44 1 217.325 67.2134 -5.55112e-17
45 1 163.654 152.822 -5.55112e-17
46 1 125.5 6.59185 -5.55112e-17
47 1 82.5351 109.405 -5.55112e-17
48 2 43.5835 37.7083 -5.55112e-17
49 1 29.476 15.3618 -5.55112e-17
50 1 16.0171 88.8306 -5.55112e-17
51 1 202.256 192.411 -5.55112e-17
52 1 127.166 146.274 -5.55112e-17
53 1 132.762 171.881 -5.55112e-17
54 1 215.883 96.3961 -5.55112e-17
55 1 82.0259 176.473 -5.55112e-17
56 1 216.375 157.117 -5.55112e-17
57 2 34.6472 142.335 -5.55112e-17
58 1 134.059 137.883 -5.55112e-17
59 1 39.2203 190.784 -5.55112e-17
60 2 30.2561 173.868 -5.55112e-17
61 2 208.833 117.809 -5.55112e-17
62 1 75.7459 125.104 -5.55112e-17
63 1 44.8637 118.356 -5.55112e-17
64 1 214.424 196.214 -5.55112e-17
65 1 19.5884 19.2604 -5.55112e-17
66 1 0.713446 197.181 -5.55112e-17
67 1 203.752 190.406 -5.55112e-17
68 1 14.7254 15.5269 -5.55112e-17
69 1 25.6076 36.1545 -5.55112e-17
70 1 8.34917 12.0161 -5.55112e-17
71 1 86.8762 77.982 -5.55112e-17
72 1 35.6425 2.05047 -5.55112e-17
73 1 101.179 125.92 -5.55112e-17
74 1 76.9232 161.493 -5.55112e-17
75 2 29.0349 209.466 -5.55112e-17
76 1 64.1955 112.076 -5.55112e-17
77 1 28.0456 36.7035 -5.55112e-17
78 1 29.7309 32.2504 -5.55112e-17
79 2 113.664 168.772 -5.55112e-17
80 1 77.3595 53.7068 -5.55112e-17
81 1 97.2968 7.43106 -5.55112e-17
82 1 73.9538 4.34979 -5.55112e-17
83 2 117.115 139.787 -5.55112e-17
84 1 83.3067 34.8541 -5.55112e-17
85 1 76.1988 155.526 -5.55112e-17
86 1 68.8161 171.323 -5.55112e-17
87 1 160.983 42.0285 -5.55112e-17
88 1 189.172 103.074 -5.55112e-17
89 2 212.297 22.6729 -5.55112e-17
90 2 14.446 53.52 -5.55112e-17
91 1 120.202 166.498 -5.55112e-17
92 2 139.147 115.953 -5.55112e-17
93 1 207.929 11.691 -5.55112e-17
94 2 36.7967 136.539 -5.55112e-17
95 1 154.544 149.286 -5.55112e-17
96 1 57.2797 2.6189 -5.55112e-17
97 1 11.0789 118.325 -5.55112e-17
98 1 99.3621 153.173 -5.55112e-17
99 1 81.128 68.5307 -5.55112e-17
100 1 193.26 73.8572 -5.55112e-17
101 1 45.8383 212.028 -5.55112e-17
102 1 139.273 47.3848 -5.55112e-17
103 1 170.384 217.696 -5.55112e-17
104 1 133.382 77.1506 -5.55112e-17
105 1 42.9864 95.4631 -5.55112e-17
106 1 115.27 142.009 -5.55112e-17
107 2 215.907 201.388 -5.55112e-17
108 1 195.673 45.1443 -5.55112e-17
109 1 109.49 87.8329 -5.55112e-17
110 1 182.219 20.017 -5.55112e-17
111 1 180.179 69.5267 -5.55112e-17
112 1 179.816 155.974 -5.55112e-17
113 1 77.3007 145.602 -5.55112e-17
114 1 203.012 138.675 -5.55112e-17
115 1 168.912 186.313 -5.55112e-17
116 2 89.6713 147.018 -5.55112e-17
117 1 79.7771 89.6872 -5.55112e-17
118 1 186.477 202.824 -5.55112e-17
119 2 156.231 215.018 -5.55112e-17
120 1 35.5285 44.4012 -5.55112e-17
121 1 53.3635 16.9913 -5.55112e-17
122 1 210.687 210.687 -5.55112e-17
123 1 107.532 83.1003 -5.55112e-17
124 1 42.808 160.752 -5.55112e-17
125 1 110.827 173.594 -5.55112e-17
126 1 194.683 205.15 -5.55112e-17
127 1 51.6643 137.321 -5.55112e-17
128 1 117.798 148.221 -5.55112e-17
129 1 113.155 8.1544 -5.55112e-17
130 1 81.3776 88.0229 -5.55112e-17
131 1 78.9255 130.86 -5.55112e-17
132 2 166.934 67.3754 -5.55112e-17
133 1 40.7389 150.224 -5.55112e-17
134 1 97.1111 116.532 -5.55112e-17
135 1 180.066 211.225 -5.55112e-17
136 1 109.601 0.209947 -5.55112e-17
137 1 213.57 120.642 -5.55112e-17
138 1 112.233 56.9251 -5.55112e-17
139 1 206.444 30.3692 -5.55112e-17
140 2 15.5042 192.29 -5.55112e-17
141 1 96.6173 195.528 -5.55112e-17
142 2 45.6317 155.919 -5.55112e-17
143 1 16.1519 217.78 -5.55112e-17
144 2 130.901 86.6458 -5.55112e-17
145 1 122.05 164.349 -5.55112e-17
146 1 72.7596 196.728 -5.55112e-17
147 1 93.401 21.5449 -5.55112e-17
148 1 70.536 130.828 -5.55112e-17
149 1 92.9614 180.63 -5.55112e-17
150 1 154.057 207.006 -5.55112e-17
151 1 217.113 38.7909 -5.55112e-17
152 1 182.799 171.27 -5.55112e-17
153 2 53.5852 126.775 -5.55112e-17
154 1 22.8394 181.714 -5.55112e-17
155 1 7.84968 17.1032 -5.55112e-17
156 2 162.408 168.603 -5.55112e-17
157 1 145.673 87.6705 -5.55112e-17
158 1 158.469 205.344 -5.55112e-17
159 1 152.58 125.719 -5.55112e-17
160 1 94.0357 189.148 -5.55112e-17
161 1 78.352 163.841 -5.55112e-17
162 1 135.788 160.459 -5.55112e-17
163 1 125.357 134.058 -5.55112e-17
164 1 44.7226 32.1711 -5.55112e-17
165 1 209.854 131.731 -5.55112e-17
166 2 64.0032 163.931 -5.55112e-17
167 1 28.3453 131.232 -5.55112e-17
168 1 117.893 207.623 -5.55112e-17
169 1 31.7847 119.065 -5.55112e-17
170 1 15.011 116.696 -5.55112e-17
171 1 69.0715 108.204 -5.55112e-17
172 1 40.8882 83.4987 -5.55112e-17
173 1 48.0394 148.723 -5.55112e-17
174 1 130.547 21.0593 -5.55112e-17
175 2 157.904 85.0807 -5.55112e-17
176 1 46.421 67.9762 -5.55112e-17
177 2 96.5696 119.509 -5.55112e-17
178 1 8.10069 194.616 -5.55112e-17
179 1 73.9475 148.7 -5.55112e-17
180 1 207.893 32.3515 -5.55112e-17
181 1 207.949 43.2518 -5.55112e-17
182 2 160.635 192.663 -5.55112e-17
183 1 190.624 171.192 -5.55112e-17
184 1 20.7113 47.3535 -5.55112e-17
185 2 133.403 188.229 -5.55112e-17
186 2 79.2949 75.6472 -5.55112e-17
187 1 121.551 184.57 -5.55112e-17
188 1 93.8991 27.1751 -5.55112e-17
189 1 1.50255 216.014 -5.55112e-17
190 2 186.087 132.291 -5.55112e-17
191 1 155.441 106.734 -5.55112e-17
192 2 126.867 101.794 -5.55112e-17
193 2 183.577 97.4401 -5.55112e-17
194 1 81.2135 65.446 -5.55112e-17
195 1 9.84079 133.415 -5.55112e-17
196 1 94.633 170.816 -5.55112e-17
197 1 71.991 13.3307 -5.55112e-17
198 2 69.8206 78.3508 -5.55112e-17
199 1 48.8025 109.379 -5.55112e-17
200 1 16.6889 45.2273 -5.55112e-17
201 2 136.617 123.48 -5.55112e-17
202 1 188.632 26.434 -5.55112e-17
203 1 119.23 59.6987 -5.55112e-17
204 1 191.287 25.8934 -5.55112e-17
205 2 40.1198 155.147 -5.55112e-17
206 1 198.706 175.248 -5.55112e-17
207 1 210.373 34.0877 -5.55112e-17
208 1 49.8127 116.486 -5.55112e-17
209 1 114.861 110.669 -5.55112e-17
210 1 168.563 121.841 -5.55112e-17
211 2 74.2353 178.319 -5.55112e-17
212 1 192.041 90.5048 -5.55112e-17
213 1 51.6333 73.1725 -5.55112e-17
214 1 0.859806 23.6876 -5.55112e-17
215 1 30.0641 34.7891 -5.55112e-17
216 1 143.991 113.438 -5.55112e-17
217 1 109.336 95.7863 -5.55112e-17
218 2 117.686 38.3072 -5.55112e-17
219 1 153.825 42.3346 -5.55112e-17
220 2 213.727 57.8962 -5.55112e-17
221 1 61.2113 84.38 -5.55112e-17
222 1 60.003 100.542 -5.55112e-17
223 1 188.824 163.533 -5.55112e-17
224 2 105.758 212.106 -5.55112e-17
225 1 73.7591 141.923 -5.55112e-17
226 1 146.662 157.787 -5.55112e-17
227 2 160.383 68.8167 -5.55112e-17
228 1 91.2213 122.644 -5.55112e-17
229 1 168.428 64.7399 -5.55112e-17
230 1 19.5445 91.7356 -5.55112e-17
231 1 128.517 91.5644 -5.55112e-17
232 1 124.678 30.3616 -5.55112e-17
233 1 17.8974 59.6236 -5.55112e-17
234 1 29.9942 95.6976 -5.55112e-17
235 1 122.833 127.667 -5.55112e-17
236 1 199.562 74.012 -5.55112e-17
237 1 72.7212 144.284 -5.55112e-17
238 1 217.898 71.5709 -5.55112e-17
239 2 39.8606 215.989 -5.55112e-17
240 1 194.687 191.687 -5.55112e-17
241 2 20.5687 2.20954 -5.55112e-17
242 2 194.002 164.4 -5.55112e-17
243 2 116.871 173.535 -5.55112e-17
244 1 124.214 161.732 -5.55112e-17
245 1 114.32 3.09695 -5.55112e-17
246 1 49.8514 7.10883 -5.55112e-17
247 1 191.556 5.33981 -5.55112e-17
248 1 102.635 17.5736 -5.55112e-17
249 1 44.7004 120.897 -5.55112e-17
250 2 140.915 100.084 -5.55112e-17
251 1 205.187 18.31 -5.55112e-17
252 1 65.0681 76.3324 -5.55112e-17
253 1 76.378 65.7748 -5.55112e-17
254 2 137.101 18.4544 -5.55112e-17
255 1 60.6163 30.212 -5.55112e-17
256 1 187.934 208.158 -5.55112e-17
257 1 53.2438 146.904 -5.55112e-17
258 2 24.7079 59.0826 -5.55112e-17
259 1 66.4958 13.5182 -5.55112e-17
260 1 169.685 59.9035 -5.55112e-17
261 1 86.6361 146.654 -5.55112e-17
262 1 149.086 122.007 -5.55112e-17
263 1 140.355 18.676 -5.55112e-17
264 1 159.12 60.7853 -5.55112e-17
265 1 120.456 149.065 -5.55112e-17
266 1 70.5834 86.4426 -5.55112e-17
267 1 156.112 200.665 -5.55112e-17
268 1 100.245 83.45 -5.55112e-17
269 1 166.462 108.795 -5.55112e-17
270 1 9.25575 84.1381 -5.55112e-17
271 1 212.258 134.586 -5.55112e-17
272 1 99.7623 142.401 -5.55112e-17
273 1 173.034 92.2206 -5.55112e-17
274 2 110.268 112.571 -5.55112e-17
275 1 37.3303 39.501 -5.55112e-17
276 2 29.454 121.252 -5.55112e-17
277 2 200.125 68.8902 -5.55112e-17
278 1 84.6269 209.616 -5.55112e-17
279 2 16.2493 214.391 -5.55112e-17
280 1 195.504 31.3111 -5.55112e-17
281 1 169.042 94.0043 -5.55112e-17
282 1 144.747 175.771 -5.55112e-17
283 1 214.809 29.0542 -5.55112e-17
284 1 99.3429 65.2038 -5.55112e-17
285 1 59.1492 42.964 -5.55112e-17
286 2 114.747 192.409 -5.55112e-17
287 1 52.0238 218.9 -5.55112e-17
288 1 53.7667 179.427 -5.55112e-17
289 1 35.1398 9.90413 -5.55112e-17
290 1 90.7694 136.386 -5.55112e-17
291 1 65.9036 129.771 -5.55112e-17
292 2 196.818 91.9466 -5.55112e-17
293 2 21.7392 112.528 -5.55112e-17
294 1 60.7782 24.3079 -5.55112e-17
295 1 0.531848 54.2833 -5.55112e-17
296 1 90.5407 43.8875 -5.55112e-17
297 1 206.576 207.98 -5.55112e-17
298 1 0.886756 151.408 -5.55112e-17
299 1 73.8081 26.9467 -5.55112e-17
300 2 75.7323 111.174 -5.55112e-17
301 1 104.24 153.09 -5.55112e-17
302 1 141.967 156.255 -5.55112e-17
303 2 209.943 173.687 -5.55112e-17
304 2 201.603 175.867 -5.55112e-17
305 1 22.427 103.028 -5.55112e-17
306 1 217.721 25.1067 -5.55112e-17
307 1 128.387 5.21975 -5.55112e-17
308 1 116.676 15.4356 -5.55112e-17
309 2 212.249 152.827 -5.55112e-17
310 1 151.381 174.428 -5.55112e-17
311 1 178.652 213.808 -5.55112e-17
312 1 37.1214 188.19 -5.55112e-17
313 2 120.402 54.1339 -5.55112e-17
314 1 33.4792 169.773 -5.55112e-17
315 1 102.285 184.558 -5.55112e-17
316 1 17.2754 209.495 -5.55112e-17
317 1 76.4615 35.9659 -5.55112e-17
318 1 107.894 217.063 -5.55112e-17
319 1 27.794 156.1 -5.55112e-17
320 1 148.721 43.317 -5.55112e-17
321 1 66.2447 171.501 -5.55112e-17
322 1 103.112 157.445 -5.55112e-17
323 1 18.2806 216.775 -5.55112e-17
324 1 114.861 171.245 -5.55112e-17
325 1 47.9794 171.131 -5.55112e-17
326 1 7.54314 76.4911 -5.55112e-17
327 2 154.225 123.335 -5.55112e-17
328 1 27.9086 218.365 -5.55112e-17
329 2 25.9917 136.854 -5.55112e-17
330 1 209.857 67.0222 -5.55112e-17
331 1 18.0797 138.158 -5.55112e-17
332 2 86.5026 149.435 -5.55112e-17
333 1 176.725 192.838 -5.55112e-17
334 1 61.6633 1.52819 -5.55112e-17
335 1 33.642 183.252 -5.55112e-17
336 1 118.377 65.0838 -5.55112e-17
337 1 214.265 191.414 -5.55112e-17
338 1 140.76 161.154 -5.55112e-17
339 1 94.0528 121.775 -5.55112e-17
340 1 64.2167 161.277 -5.55112e-17
341 1 10.7148 6.51651 -5.55112e-17
342 1 171.408 143.734 -5.55112e-17
343 1 104.129 79.2634 -5.55112e-17
344 1 44.4057 196.837 -5.55112e-17
345 1 192.73 148.995 -5.55112e-17
346 1 23.264 38.0079 -5.55112e-17
347 1 158.109 153.192 -5.55112e-17
348 1 171.672 61.4536 -5.55112e-17
349 1 6.68034 174.662 -5.55112e-17
350 2 8.13553 54.465 -5.55112e-17
351 1 58.8519 106.282 -5.55112e-17
352 1 19.2463 214.037 -5.55112e-17
353 1 183.538 165.712 -5.55112e-17
354 1 171.339 167.445 -5.55112e-17
355 1 40.8059 64.2737 -5.55112e-17
356 1 34.1923 36.1982 -5.55112e-17
357 1 0.68473 206.856 -5.55112e-17
358 1 45.6697 202.378 -5.55112e-17
359 1 39.5342 76.3916 -5.55112e-17
360 1 77.4557 98.9995 -5.55112e-17
361 1 89.564 8.4921 -5.55112e-17
362 1 110.366 132.695 -5.55112e-17
363 1 142.719 83.5863 -5.55112e-17
364 2 148.006 51.3827 -5.55112e-17
365 1 174.706 215.881 -5.55112e-17
366 1 60.9433 146.399 -5.55112e-17
367 1 172.406 82.7107 -5.55112e-17
368 1 170.334 146.319 -5.55112e-17
369 2 112.215 5.1709 -5.55112e-17
370 1 42.567 23.7503 -5.55112e-17
371 1 178.986 78.647 -5.55112e-17
372 2 70.9643 89.5359 -5.55112e-17
373 2 102.166 141.492 -5.55112e-17
374 1 111.103 50.0594 -5.55112e-17
375 1 140.572 104.338 -5.55112e-17
376 1 204.644 200.425 -5.55112e-17
377 1 109.287 121.854 -5.55112e-17
378 1 82.5692 50.0803 -5.55112e-17
379 1 97.6456 66.8157 -5.55112e-17
380 1 74.0984 35.078 -5.55112e-17
381 1 207.657 52.4082 -5.55112e-17
382 1 126.869 218.677 -5.55112e-17
383 1 1.53418 46.8968 -5.55112e-17
384 1 40.814 59.9995 -5.55112e-17
385 1 109.325 37.72 -5.55112e-17
386 2 48.1957 2.99029 -5.55112e-17
387 1 173.265 24.2836 -5.55112e-17
388 1 172.497 19.5251 -5.55112e-17
389 1 190.307 55.4775 -5.55112e-17
390 2 61.8404 32.6 -5.55112e-17
391 2 39.6733 187.899 -5.55112e-17
392 1 39.6513 201.306 -5.55112e-17
393 1 40.3219 208.696 -5.55112e-17
394 1 142.471 61.1091 -5.55112e-17
395 1 95.7385 179.864 -5.55112e-17
396 1 101.185 175.491 -5.55112e-17
397 1 199.998 141.95 -5.55112e-17
398 1 76.8281 209.538 -5.55112e-17
399 1 197.046 105.18 -5.55112e-17
400 1 27.7781 43.8966 -5.55112e-17
401 1 92.0207 215.654 -5.55112e-17
402 2 70.3404 213.041 -5.55112e-17
403 1 199.829 218.774 -5.55112e-17
404 1 130.19 162.363 -5.55112e-17
405 1 75.3957 91.7791 -5.55112e-17
406 1 132.2 19.2438 -5.55112e-17
407 2 5.66159 209.409 -5.55112e-17
408 1 47.7006 134.624 -5.55112e-17
409 1 55.6565 165.13 -5.55112e-17
410 1 21.3522 105.268 -5.55112e-17
411 1 63.1073 29.7761 -5.55112e-17
412 1 160.002 148.238 -5.55112e-17
413 1 53.855 108.34 -5.55112e-17
414 1 47.0323 188.89 -5.55112e-17
415 1 179.321 197.173 -5.55112e-17
416 1 40.6 138.353 -5.55112e-17
417 1 213.184 184.064 -5.55112e-17
418 2 10.737 196.074 -5.55112e-17
419 1 23.6285 40.6397 -5.55112e-17
420 2 86.7387 193.849 -5.55112e-17
421 1 210.317 43.2861 -5.55112e-17
422 1 70.3662 105.812 -5.55112e-17
423 2 3.08373 131.447 -5.55112e-17
424 1 135.646 6.8354 -5.55112e-17
425 1 173.108 65.9979 -5.55112e-17
426 1 156.875 207.3 -5.55112e-17
427 1 170.088 7.00804 -5.55112e-17
428 1 62.6495 109.635 -5.55112e-17
429 1 106.04 162.23 -5.55112e-17
430 1 94.2975 46.9428 -5.55112e-17
431 1 166.157 179.315 -5.55112e-17
432 1 199.259 127.39 -5.55112e-17
433 1 76.905 129.7 -5.55112e-17
434 1 38.2682 83.2131 -5.55112e-17
435 1 2.15941 139.988 -5.55112e-17
436 1 41.3235 6.64035 -5.55112e-17
437 1 191.034 119.853 -5.55112e-17
438 2 132.603 153.666 -5.55112e-17
439 1 52.0961 191.667 -5.55112e-17
440 1 46.6226 104.234 -5.55112e-17
441 1 95.3225 142.212 -5.55112e-17
442 1 211.033 205.904 -5.55112e-17
443 1 149.49 172.198 -5.55112e-17
444 1 153.566 151.663 -5.55112e-17
445 1 151.527 112.135 -5.55112e-17
446 1 54.4222 55.802 -5.55112e-17
447 1 39.1012 98.3218 -5.55112e-17
448 1 121.904 204.691 -5.55112e-17
449 1 150.605 194.044 -5.55112e-17
450 1 0.0413466 74.0605 -5.55112e-17
451 1 35.9032 193.578 -5.55112e-17
452 1 143.697 11.9918 -5.55112e-17
453 1 24.5316 91.284 -5.55112e-17
454 1 63.055 3.33874 -5.55112e-17
455 1 100.718 73.2937 -5.55112e-17
456 1 119.187 51.617 -5.55112e-17
457 1 191.414 179.812 -5.55112e-17
458 1 180.765 11.8319 -5.55112e-17
459 1 78.7676 138.982 -5.55112e-17
460 1 208.055 35.0681 -5.55112e-17
461 1 32.3577 133.256 -5.55112e-17
462 1 117.776 7.74393 -5.55112e-17
463 1 182.398 180.949 -5.55112e-17
464 1 25.2385 146.815 -5.55112e-17
465 1 212.997 25.103 -5.55112e-17
466 1 218.292 144.081 -5.55112e-17
467 1 95.7628 44.8247 -5.55112e-17
468 1 34.1279 97.7937 -5.55112e-17
469 1 147.178 210.346 -5.55112e-17
470 1 118.966 175.402 -5.55112e-17
471 1 141.002 48.9983 -5.55112e-17
472 1 162.88 161.097 -5.55112e-17
473 1 45.5901 172.384 -5.55112e-17
474 1 113.414 36.4982 -5.55112e-17
475 1 197.855 31.9281 -5.55112e-17
476 2 113.518 132.362 -5.55112e-17
477 1 197.083 14.1498 -5.55112e-17
478 1 119.371 180.55 -5.55112e-17
479 1 182.336 160.197 -5.55112e-17
480 1 175.84 213.634 -5.55112e-17
481 1 20.8912 85.1087 -5.55112e-17
482 1 143.004 76.7784 -5.55112e-17
483 1 167.046 6.61401 -5.55112e-17
484 2 10.0464 40.9039 -5.55112e-17
485 1 190.334 7.94434 -5.55112e-17
486 1 157.187 218.037 -5.55112e-17
487 1 108.09 46.1068 -5.55112e-17
488 1 68.4988 117.225 -5.55112e-17
489 1 177.733 101.876 -5.55112e-17
490 1 100.894 24.601 -5.55112e-17
491 1 171.595 102.095 -5.55112e-17
492 1 25.3447 168.777 -5.55112e-17
493 1 210.202 69.4235 -5.55112e-17
494 1 38.7797 51.3988 -5.55112e-17
495 1 207.509 196.991 -5.55112e-17
496 2 10.8998 44.1388 -5.55112e-17
497 1 121.959 51.4872 -5.55112e-17
498 1 101.002 130.635 -5.55112e-17
499 2 87.4282 174.264 -5.55112e-17
500 1 12.9024 107.544 -5.55112e-17
501 2 160.477 47.4978 -5.55112e-17
502 2 111.839 126.265 -5.55112e-17
503 1 112.005 75.1629 -5.55112e-17
504 1 2.25695 113.81 -5.55112e-17
505 1 9.98648 182.021 -5.55112e-17
506 1 165.44 167.333 -5.55112e-17
507 1 163.128 58.8835 -5.55112e-17
508 1 171.189 13.6487 -5.55112e-17
509 2 26.4472 86.5465 -5.55112e-17
510 2 31.4731 20.4231 -5.55112e-17
511 1 2.80911 14.2627 -5.55112e-17
512 2 19.44 141.996 -5.55112e-17
513 1 84.8167 165.948 -5.55112e-17
514 1 127.87 187.835 -5.55112e-17
515 1 210.81 19.5427 -5.55112e-17
516 1 124.76 68.767 -5.55112e-17
517 1 53.0988 101.414 -5.55112e-17
518 2 197.599 113.834 -5.55112e-17
519 1 103.456 130.826 -5.55112e-17
520 2 192.883 32.458 -5.55112e-17
521 1 29.1326 4.77677 -5.55112e-17
522 1 108.651 10.1935 -5.55112e-17
523 1 170.093 117.22 -5.55112e-17
524 1 82.9794 25.6488 -5.55112e-17
525 1 131.467 8.89324 -5.55112e-17
526 1 133.117 25.4652 -5.55112e-17
527 1 215.295 116.41 -5.55112e-17
528 1 51.1506 124.963 -5.55112e-17
529 1 60.4704 178.05 -5.55112e-17
530 1 105.783 62.1148 -5.55112e-17
531 1 122.083 117.784 -5.55112e-17
532 1 118.161 18.4088 -5.55112e-17
533 1 191.239 35.2207 -5.55112e-17
534 1 112.187 117.65 -5.55112e-17
535 1 176.199 128.195 -5.55112e-17
536 1 177.966 190.31 -5.55112e-17
537 1 85.4412 30.235 -5.55112e-17
538 1 133.097 174.241 -5.55112e-17
539 1 184.897 3.33017 -5.55112e-17
540 1 20.8746 14.1717 -5.55112e-17
541 1 17.6382 77.699 -5.55112e-17
542 1 149.99 71.0766 -5.55112e-17
543 1 131.857 103.775 -5.55112e-17
544 1 156.2 137.054 -5.55112e-17
545 1 110.297 17.5589 -5.55112e-17
546 1 111.995 91.5378 -5.55112e-17
547 1 93.3456 16.8442 -5.55112e-17
548 1 192.901 181.61 -5.55112e-17
549 1 89.0623 123.703 -5.55112e-17
550 2 110.051 93.3859 -5.55112e-17
551 2 73.6685 37.6834 -5.55112e-17
552 2 211.037 181.932 -5.55112e-17
553 1 32.0115 75.7044 -5.55112e-17
554 1 160.881 146.157 -5.55112e-17
555 2 68.7554 181.229 -5.55112e-17
556 1 124.253 132.043 -5.55112e-17
557 1 140.899 132.108 -5.55112e-17
558 1 41.6994 128.704 -5.55112e-17
559 1 20.0389 31.8401 -5.55112e-17
560 1 160.476 198.531 -5.55112e-17
561 1 18.7489 0.0908573 -5.55112e-17
562 1 200.022 158.695 -5.55112e-17
563 2 128.559 79.3717 -5.55112e-17
564 1 139.089 72.8071 -5.55112e-17
565 1 170.938 54.2687 -5.55112e-17
566 1 51.0329 163.528 -5.55112e-17
567 1 213.412 125.739 -5.55112e-17
568 1 23.0045 52.3269 -5.55112e-17
569 1 14.5607 131.21 -5.55112e-17
570 1 25.2184 66.821 -5.55112e-17
571 1 1.08892 148.195 -5.55112e-17
572 1 9.67025 93.7245 -5.55112e-17
573 1 111.307 15.1016 -5.55112e-17
574 1 106.232 175.642 -5.55112e-17
575 1 46.1953 127.654 -5.55112e-17
576 1 203.123 124.082 -5.55112e-17
577 1 92.6032 83.1583 -5.55112e-17
578 1 119.078 152.982 -5.55112e-17
579 1 144.47 182.252 -5.55112e-17
580 1 143.185 208.065 -5.55112e-17
581 1 150.221 68.7213 -5.55112e-17
582 1 90.2836 80.6179 -5.55112e-17
583 1 79.9401 183.1 -5.55112e-17
584 2 171.049 43.7823 -5.55112e-17
585 1 73.0151 2.02118 -5.55112e-17
586 1 114.294 134.841 -5.55112e-17
587 1 209.236 45.4983 -5.55112e-17
588 1 204.839 128.901 -5.55112e-17
589 1 139.44 198.588 -5.55112e-17
590 1 201.748 143.55 -5.55112e-17
591 1 35.2496 181.28 -5.55112e-17
592 1 64.4154 214.391 -5.55112e-17
593 1 149.69 204.405 -5.55112e-17
594 1 95.3518 58.9266 -5.55112e-17
595 1 125.519 126.904 -5.55112e-17
596 1 92.2329 159.11 -5.55112e-17
597 2 174.168 14.344 -5.55112e-17
598 1 212.934 138.807 -5.55112e-17
599 1 122.394 112.846 -5.55112e-17
600 1 85.9487 107.159 -5.55112e-17
601 1 4.10639 215.904 -5.55112e-17
602 1 180.844 22.7734 -5.55112e-17
603 1 98.4019 188.06 -5.55112e-17
604 1 156.711 82.7975 -5.55112e-17
605 2 35.2308 65.3408 -5.55112e-17
606 1 168.801 179.585 -5.55112e-17
607 2 163.777 207.026 -5.55112e-17
608 1 183.928 5.58991 -5.55112e-17
609 1 47.5079 70.3455 -5.55112e-17
610 1 132.847 56.4127 -5.55112e-17
611 1 94.6339 191.544 -5.55112e-17
612 1 37.7504 45.4788 -5.55112e-17
613 1 119.642 89.5842 -5.55112e-17
614 2 151.233 78.0286 -5.55112e-17
615 1 13.6008 213.484 -5.55112e-17
616 1 125.935 123.801 -5.55112e-17
617 1 164.492 6.60111 -5.55112e-17
618 1 77.9436 91.4307 -5.55112e-17
619 1 29.2043 111.546 -5.55112e-17
620 1 203.968 136.567 -5.55112e-17
621 1 138.891 31.1363 -5.55112e-17
622 1 172.807 207.097 -5.55112e-17
623 1 93.4206 5.90009 -5.55112e-17
624 1 160.533 139.062 -5.55112e-17
625 1 21.5254 157.747 -5.55112e-17
626 1 135.621 153.069 -5.55112e-17
627 1 211.916 38.373 -5.55112e-17
628 1 89.5319 176.431 -5.55112e-17
629 1 155.81 146.232 -5.55112e-17
630 2 136.437 96.7656 -5.55112e-17
631 1 22.6878 164.337 -5.55112e-17
632 1 35.627 117.029 -5.55112e-17
633 1 97.3373 152.167 -5.55112e-17
634 1 207.095 16.1934 -5.55112e-17
635 1 188.705 52.7999 -5.55112e-17
636 1 93.0017 70.163 -5.55112e-17
637 1 91.6449 33.5644 -5.55112e-17
638 1 48.9923 16.714 -5.55112e-17
639 2 152.228 36.4797 -5.55112e-17
640 1 217.037 164.587 -5.55112e-17
641 1 152.469 67.5839 -5.55112e-17
642 1 150.775 215.361 -5.55112e-17
643 2 154.544 173.757 -5.55112e-17
644 1 122.841 64.5353 -5.55112e-17
645 1 127.424 212.9 -5.55112e-17
646 2 13.7288 160.033 -5.55112e-17
647 1 94.6177 193.971 -5.55112e-17
648 1 187.301 198.4 -5.55112e-17
649 2 116.336 43.5531 -5.55112e-17
650 1 178.54 97.4997 -5.55112e-17
651 1 107.791 17.703 -5.55112e-17
652 1 127.871 173.139 -5.55112e-17
653 1 124.902 114.329 -5.55112e-17
654 1 205.738 165.313 -5.55112e-17
655 2 7.34041 201.348 -5.55112e-17
656 1 130.212 157.571 -5.55112e-17
657 2 59.1724 160.805 -5.55112e-17
658 1 200.887 98.3758 -5.55112e-17
659 2 129.211 119.762 -5.55112e-17
660 1 175.889 28.6551 -5.55112e-17
661 1 172.419 55.9963 -5.55112e-17
662 1 187.438 50.6559 -5.55112e-17
663 1 99.265 111.571 -5.55112e-17
664 1 217.096 53.3629 -5.55112e-17
665 1 186.42 102.8 -5.55112e-17
666 2 207.158 92.565 -5.55112e-17
667 1 58.3778 117.871 -5.55112e-17
668 2 17.4711 182.204 -5.55112e-17
669 1 139.379 136.76 -5.55112e-17
670 1 187.665 58.6799 -5.55112e-17
671 2 157.383 58.7944 -5.55112e-17
672 1 54.656 58.244 -5.55112e-17
673 1 202.847 141.369 -5.55112e-17
674 1 36.4042 7.6607 -5.55112e-17
675 1 12.1706 94.1972 -5.55112e-17
676 1 199.189 163.61 -5.55112e-17
677 1 194.744 159.334 -5.55112e-17
678 1 98.184 52.2854 -5.55112e-17
679 2 37.4663 145.139 -5.55112e-17
680 1 26.4047 117.794 -5.55112e-17
681 2 22.9582 65.0429 -5.55112e-17
682 1 129.391 51.2865 -5.55112e-17
683 1 132.317 164.028 -5.55112e-17
684 1 63.6347 34.9233 -5.55112e-17
685 1 74.3649 133.883 -5.55112e-17
686 1 200.99 19.6347 -5.55112e-17
687 1 113.111 84.0154 -5.55112e-17
688 1 7.46015 155.96 -5.55112e-17
689 2 43.9543 49.9211 -5.55112e-17
690 1 34.7902 154.019 -5.55112e-17
691 1 88.8648 161.777 -5.55112e-17
692 1 13.6454 89.6039 -5.55112e-17
693 1 118.535 150.616 -5.55112e-17
694 1 181.94 196.81 -5.55112e-17
695 1 26.8189 8.46727 -5.55112e-17
696 1 100.553 211.85 -5.55112e-17
697 1 74.0637 136.607 -5.55112e-17
698 1 12.8284 150.73 -5.55112e-17
699 1 132.188 126.732 -5.55112e-17
700 1 195.363 130.962 -5.55112e-17
701 1 33.185 116.803 -5.55112e-17
702 1 83.2396 214.695 -5.55112e-17
703 2 80.7251 212.545 -5.55112e-17
704 1 211.654 176.89 -5.55112e-17
705 2 55.495 110.814 -5.55112e-17
706 1 38.1744 16.6911 -5.55112e-17
707 1 81.1459 154.917 -5.55112e-17
708 1 130.235 178.118 -5.55112e-17
709 1 103.425 144.019 -5.55112e-17
710 1 109.854 208.085 -5.55112e-17
711 1 118.158 62.3049 -5.55112e-17
712 1 24.2181 23.9991 -5.55112e-17
713 1 124.468 143.584 -5.55112e-17
714 1 33.7067 88.6027 -5.55112e-17
715 1 183.161 82.1692 -5.55112e-17
716 1 36.5559 98.0043 -5.55112e-17
717 1 33.7275 137.715 -5.55112e-17
718 1 24.4487 201.002 -5.55112e-17
719 2 180.01 87.7121 -5.55112e-17
720 1 80.8604 31.2525 -5.55112e-17
721 1 148.177 145.784 -5.55112e-17
722 1 66.3688 95.4643 -5.55112e-17
723 2 109.633 58.3188 -5.55112e-17
724 1 115.59 8.5239 -5.55112e-17
725 1 54.8339 213.898 -5.55112e-17
726 1 25.1819 13.1553 -5.55112e-17
727 1 47.5634 25.2335 -5.55112e-17
728 2 34.6695 74.2399 -5.55112e-17
729 1 34.8565 24.2246 -5.55112e-17
730 1 47.7492 160.306 -5.55112e-17
731 1 53.6785 158.662 -5.55112e-17
732 1 139.284 173.303 -5.55112e-17
733 1 139.562 142.212 -5.55112e-17
734 1 153.903 23.8711 -5.55112e-17
735 1 94.433 211.399 -5.55112e-17
736 2 8.82413 74.1313 -5.55112e-17
737 1 27.0518 204.592 -5.55112e-17
738 1 190.743 131.479 -5.55112e-17
739 1 123.968 91.5613 -5.55112e-17
740 1 157.213 105.005 -5.55112e-17
741 2 133.11 110.393 -5.55112e-17
742 1 24.1021 179.388 -5.55112e-17
743 1 94.9551 139.855 -5.55112e-17
744 2 159.528 118.2 -5.55112e-17
745 1 191.345 122.053 -5.55112e-17
746 1 215.169 26.617 -5.55112e-17
747 2 68.3446 34.8687 -5.55112e-17
748 1 78.1256 21.294 -5.55112e-17
749 1 185.647 184.115 -5.55112e-17
750 1 27.4156 190.261 -5.55112e-17
751 1 2.77105 181.308 -5.55112e-17
752 1 171.134 29.9408 -5.55112e-17
753 1 184.899 126.922 -5.55112e-17
754 1 217.425 117.412 -5.55112e-17
755 1 120.055 157.427 -5.55112e-17
756 2 100.033 147.896 -5.55112e-17
757 1 75.9534 207.069 -5.55112e-17
758 1 63.0632 24.9397 -5.55112e-17
759 1 179.207 192.433 -5.55112e-17
760 1 170.684 193.035 -5.55112e-17
761 1 62.9913 200.732 -5.55112e-17
762 1 27.6333 175.528 -5.55112e-17
763 1 27.6244 34.3842 -5.55112e-17
764 2 161.35 98.543 -5.55112e-17
765 1 175.674 163.753 -5.55112e-17
766 1 157.967 159.166 -5.55112e-17
767 1 83.6899 185.581 -5.55112e-17
768 1 155.678 161.066 -5.55112e-17
769 1 26.4015 81.5431 -5.55112e-17
770 2 184.773 196.96 -5.55112e-17
771 1 208.409 5.04088 -5.55112e-17
772 1 51.6008 185.918 -5.55112e-17
773 1 96.6524 40.2246 -5.55112e-17
774 1 83.2947 115.045 -5.55112e-17
775 1 8.133 45.4612 -5.55112e-17
776 1 161.908 49.8645 -5.55112e-17
777 1 166.982 11.0541 -5.55112e-17
778 1 49.0917 99.8702 -5.55112e-17
779 1 171.429 9.15044 -5.55112e-17
780 1 75.2166 211.835 -5.55112e-17
781 1 57.0086 163.091 -5.55112e-17
782 1 65.9003 116.741 -5.55112e-17
783 1 53.8891 25.0187 -5.55112e-17
784 2 197.877 211.378 -5.55112e-17
785 1 121.152 174.355 -5.55112e-17
786 1 170.889 152.809 -5.55112e-17
787 1 50.5828 95.428 -5.55112e-17
788 1 119.032 168.676 -5.55112e-17
789 2 25.9086 107.616 -5.55112e-17
790 1 194.217 5.62715 -5.55112e-17
791 2 199.729 55.8994 -5.55112e-17
792 2 106.497 76.3494 -5.55112e-17
793 2 140.912 25.2128 -5.55112e-17
794 1 78.6257 124.872 -5.55112e-17
795 1 121.458 207.362 -5.55112e-17
796 1 118.401 126.499 -5.55112e-17
797 1 123.014 81.2232 -5.55112e-17
798 2 214.686 40.0258 -5.55112e-17
799 2 146.204 7.89654 -5.55112e-17
800 2 52.1099 80.4447 -5.55112e-17
801 1 61.527 202.718 -5.55112e-17
802 1 169.714 188.465 -5.55112e-17
803 1 100.546 157.675 -5.55112e-17
804 2 104.462 136.1 -5.55112e-17
805 1 98.1549 126.051 -5.55112e-17
806 1 145.098 46.4263 -5.55112e-17
807 2 123.062 159.213 -5.55112e-17
808 1 36.7874 14.791 -5.55112e-17
809 2 99.3374 32.9753 -5.55112e-17
810 1 2.90536 22.5557 -5.55112e-17
811 1 111.449 144.875 -5.55112e-17
812 1 145.425 77.8055 -5.55112e-17
813 2 49.2489 22.4392 -5.55112e-17
814 1 63.3129 207.417 -5.55112e-17
815 1 181.348 46.1409 -5.55112e-17
816 1 90.6572 152.071 -5.55112e-17
817 1 5.70251 18.4938 -5.55112e-17
818 1 119.692 25.4633 -5.55112e-17
819 1 54.1971 22.4476 -5.55112e-17
820 1 166.241 212.945 -5.55112e-17
821 1 160.07 203.448 -5.55112e-17
822 2 53.9102 204.256 -5.55112e-17
823 2 133.52 101.511 -5.55112e-17
824 1 47.2054 91.8063 -5.55112e-17
825 1 135.594 214.084 -5.55112e-17
826 1 33.9723 179.104 -5.55112e-17
827 1 21.465 100.687 -5.55112e-17
828 1 86.6154 61.2909 -5.55112e-17
829 1 187.62 156.167 -5.55112e-17
830 1 211.142 5.19146 -5.55112e-17
831 1 61.8852 111.882 -5.55112e-17
832 1 195.725 11.8197 -5.55112e-17
833 1 31.0085 147.453 -5.55112e-17
834 1 196.489 102.361 -5.55112e-17
835 1 61.1559 41.7171 -5.55112e-17
836 1 187.472 105.25 -5.55112e-17
837 1 181.461 79.3025 -5.55112e-17
838 1 35.6921 106.997 -5.55112e-17
839 2 62.7347 74.1623 -5.55112e-17
840 1 156.35 181.298 -5.55112e-17
841 2 188.323 195.821 -5.55112e-17
842 1 23.9213 144.107 -5.55112e-17
843 2 159.126 50.9709 -5.55112e-17
844 1 109.404 5.59445 -5.55112e-17
845 1 183.016 199.402 -5.55112e-17
846 1 87.7478 85.1407 -5.55112e-17
847 1 92.9959 108.438 -5.55112e-17
848 1 202.569 103.165 -5.55112e-17
849 1 141.58 96.9492 -5.55112e-17
850 1 130.987 40.8807 -5.55112e-17
851 1 196.666 54.7267 -5.55112e-17
852 1 127.36 128.807 -5.55112e-17
853 1 143.644 187.1 -5.55112e-17
854 1 197.139 61.7628 -5.55112e-17
855 1 55.4035 91.5321 -5.55112e-17
856 1 149.794 89.8334 -5.55112e-17
857 1 158.465 1.0461 -5.55112e-17