ITEM: TIMESTEP
0
ITEM: NUMBER OF ATOMS
7200
ITEM: BOX BOUNDS xy xz yz pp pp pp
0.0000000000000000e+00 2.1900000000000000e+02 0.0000000000000000e+00
0.0000000000000000e+00 2.1900000000000000e+02 0.0000000000000000e+00
-3.6499999999999999e-01 3.6499999999999999e-01 0.0000000000000000e+00
ITEM: ATOMS id type x y z
1 1 85.8253 200.916 -5.55112e-17
2 1 89.4418 103.898 -5.55112e-17
3 1 8.93852 36.4713 -5.55112e-17
4 1 26.4414 78.2758 -5.55112e-17
5 1 32.287 94.3801 -5.55112e-17
6 1 140.518 207.055 -5.55112e-17
7 1 43.7412 212.126 -5.55112e-17
8 2 146.46 139.707 -5.55112e-17
9 1 216.811 184.291 -5.55112e-17
10 2 36.1625 167.034 -5.55112e-17
11 1 152.082 42.8827 -5.55112e-17
12 1 56.0879 85.1906 -5.55112e-17
13 2 187.524 118.741 -5.55112e-17
14 1 74.7326 89.6944 -5.55112e-17
15 1 10.618 150.452 -5.55112e-17
16 2 86.2004 211.834 -5.55112e-17
17 1 93.8215 15.9639 -5.55112e-17
18 2 107.394 10.3666 -5.55112e-17
19 1 109.472 65.8822 -5.55112e-17
20 1 215.734 111.445 -5.55112e-17
21 1 88.2746 202.024 -5.55112e-17
22 2 64.2273 170.426 -5.55112e-17
23 2 33.2201 35.9915 -5.55112e-17
24 1 154.842 158.729 -5.55112e-17
25 1 48.9713 15.6048 -5.55112e-17
26 2 50.7089 125.343 -5.55112e-17
27 1 1.64016 141.178 -5.55112e-17
28 2 67.1278 87.7059 -5.55112e-17
29 1 191.909 93.8897 -5.55112e-17
30 1 125.619 76.2244 -5.55112e-17
31 1 185.246 17.6425 -5.55112e-17
32 1 54.8908 5.87019 -5.55112e-17
33 1 1.07325 164.732 -5.55112e-17
34 1 22.6949 39.6628 -5.55112e-17
35 1 175.115 4.49398 -5.55112e-17
36 1 156.483 130.69 -5.55112e-17
37 2 122.767 119.494 -5.55112e-17
38 1 144.286 145.471 -5.55112e-17
39 1 137.025 141.331 -5.55112e-17
40 1 168.722 8.37293 -5.55112e-17
41 1 146.894 93.8035 -5.55112e-17
42 1 24.1891 85.0794 -5.55112e-17
43 1 180.17 20.707 -5.55112e-17
44 1 155.898 68.2933 -5.55112e-17
45 1 186.354 51.7222 -5.55112e-17
46 1 153.547 193.402 -5.55112e-17
47 1 59.9585 181.278 -5.55112e-17
48 2 203.497 198.393 -5.55112e-17
49 1 54.8968 12.8571 -5.55112e-17
50 1 86.0736 168.295 -5.55112e-17
51 1 121.64 65.1905 -5.55112e-17
52 1 163.921 67.5269 -5.55112e-17
53 1 158.049 12.2747 -5.55112e-17
54 1 122.082 139.578 -5.55112e-17
55 1 11.0404 160.425 -5.55112e-17
56 1 119.703 115.876 -5.55112e-17
57 2 122.782 212.394 -5.55112e-17
58 1 40.1221 206.4 -5.55112e-17
59 1 142.596 44.8965 -5.55112e-17
60 2 194.499 94.2684 -5.55112e-17
61 2 24.5103 163.517 -5.55112e-17
62 1 36.2972 121.143 -5.55112e-17
63 1 145.089 53.5528 -5.55112e-17
64 1 186.333 198.094 -5.55112e-17
65 1 157.632 172.659 -5.55112e-17
66 1 68.7017 82.0972 -5.55112e-17
67 1 170.664 138.146 -5.55112e-17
68 1 83.7225 3.74202 -5.55112e-17
69 1 70.6095 188.6 -5.55112e-17
70 1 57.1712 87.5002 -5.55112e-17
71 1 191.381 215.367 -5.55112e-17
72 1 119.262 139.309 -5.55112e-17
73 1 93.4084 131.083 -5.55112e-17
74 1 15.4301 6.20722 -5.55112e-17
75 2 93.5272 29.7621 -5.55112e-17
76 1 119.256 6.90662 -5.55112e-17
77 1 198.803 215.347 -5.55112e-17
78 1 55.9338 117.193 -5.55112e-17
79 2 177.65 14.0424 -5.55112e-17
80 1 62.6132 177.777 -5.55112e-17
81 1 132.372 157.281 -5.55112e-17
82 1 77.9321 189.35 -5.55112e-17
83 2 85.3535 190.125 -5.55112e-17
84 1 16.4985 0.655144 -5.55112e-17
85 1 51.7666 171.467 -5.55112e-17
86 1 121.316 109.594 -5.55112e-17
87 1 58.4269 110.565 -5.55112e-17
88 1 210.838 166.482 -5.55112e-17
89 2 53.9105 32.7743 -5.55112e-17
90 2 24.018 135.065 -5.55112e-17
91 1 161.165 14.6828 -5.55112e-17
92 2 166.136 204.248 -5.55112e-17
93 1 3.98419 218.514 -5.55112e-17
94 2 88.372 14.7097 -5.55112e-17
95 1 7.3801 49.2112 -5.55112e-17
96 1 213.05 143.091 -5.55112e-17
97 1 42.2864 208.223 -5.55112e-17
98 1 150.586 59.1248 -5.55112e-17
99 1 157.109 118.262 -5.55112e-17
100 1 144.511 24.8281 -5.55112e-17
101 1 79.1607 22.3909 -5.55112e-17
102 1 210.333 121.816 -5.55112e-17
103 1 146.02 196.356 -5.55112e-17
104 1 6.62881 143.692 -5.55112e-17
105 1 107.171 106.381 -5.55112e-17
106 1 72.5945 67.546 -5.55112e-17
107 2 172.366 48.1326 -5.55112e-17
108 1 150.834 54.1719 -5.55112e-17
109 1 143.761 120.232 -5.55112e-17
110 1 186.169 85.8735 -5.55112e-17
111 1 86.6952 214.763 -5.55112e-17
112 1 65.3157 103.245 -5.55112e-17
113 1 150.51 36.0229 -5.55112e-17
114 1 182.864 0.519829 -5.55112e-17
115 1 50.408 178.68 -5.55112e-17
116 2 185.083 132.441 -5.55112e-17
117 1 198.64 174.553 -5.55112e-17
118 1 1.36288 0.982556 -5.55112e-17
119 2 100.47 74.7742 -5.55112e-17
120 1 215.795 41.7171 -5.55112e-17
121 1 134.603 63.4272 -5.55112e-17
122 1 41.0515 112.94 -5.55112e-17
123 1 132.225 159.643 -5.55112e-17
124 1 191.773 48.582 -5.55112e-17
125 1 127.882 74.5439 -5.55112e-17
126 1 23.8364 57.6918 -5.55112e-17
127 1 39.6954 82.7891 -5.55112e-17
128 1 167.439 163.233 -5.55112e-17
129 1 190.471 190.694 -5.55112e-17
130 1 93.3741 68.9283 -5.55112e-17
131 1 218.148 124.942 -5.55112e-17
132 2 26.7904 181.161 -5.55112e-17
133 1 107.295 120.893 -5.55112e-17
134 1 74.1425 16.8181 -5.55112e-17
135 1 172.076 174.232 -5.55112e-17
136 1 14.561 124.283 -5.55112e-17
137 1 193.358 199.824 -5.55112e-17
138 1 88.414 22.4993 -5.55112e-17
139 1 4.40678 124.583 -5.55112e-17
140 2 187.434 190.779 -5.55112e-17
141 1 127.417 107.718 -5.55112e-17
142 2 13.7184 38.9288 -5.55112e-17
143 1 19.2379 129.458 -5.55112e-17
144 2 79.2984 11.068 -5.55112e-17
145 1 87.196 47.6674 -5.55112e-17
146 1 182.02 51.23 -5.55112e-17
147 1 171.825 186.47 -5.55112e-17
148 1 41.4112 186.797 -5.55112e-17
149 1 29.417 66.4286 -5.55112e-17
150 1 171.455 80.34 -5.55112e-17
151 1 30.8608 127.42 -5.55112e-17
152 1 208.927 176.868 -5.55112e-17
153 2 39.0687 215.065 -5.55112e-17
154 1 165.705 144.171 -5.55112e-17
155 1 151.981 16.3538 -5.55112e-17
156 2 27.3366 171.962 -5.55112e-17
157 1 190.582 118.511 -5.55112e-17
158 1 215.777 30.6405 -5.55112e-17
159 1 194.644 141.144 -5.55112e-17
160 1 48.3904 185.985 -5.55112e-17
161 1 10.7645 17.5941 -5.55112e-17
162 1 59.1199 165.202 -5.55112e-17
163 1 117.388 56.4653 -5.55112e-17
164 1 126.861 125.631 -5.55112e-17
165 1 18.6998 213.418 -5.55112e-17
166 2 168.741 41.3124 -5.55112e-17
167 1 140.334 34.5098 -5.55112e-17
168 1 174.864 215.852 -5.55112e-17
169 1 167.431 134.241 -5.55112e-17
170 1 81.2406 3.53648 -5.55112e-17
171 1 202.932 109.173 -5.55112e-17
172 1 29.583 47.5366 -5.55112e-17
173 1 47.3312 145.29 -5.55112e-17
174 1 44.9451 110.388 -5.55112e-17
175 2 151.368 195.537 -5.55112e-17
176 1 41.5398 147.071 -5.55112e-17
177 2 4.64612 119.992 -5.55112e-17
178 1 44.76 204.158 -5.55112e-17
179 1 165.985 132.32 -5.55112e-17
180 1 218.891 18.2347 -5.55112e-17
181 1 214.786 118.684 -5.55112e-17
182 2 217.669 28.4539 -5.55112e-17
183 1 61.1238 147.745 -5.55112e-17
184 1 180.964 208.134 -5.55112e-17
185 2 126.859 181.632 -5.55112e-17
186 2 134.347 144.93 -5.55112e-17
187 1 120.218 50.6569 -5.55112e-17
188 1 112.491 197.015 -5.55112e-17
189 1 126.903 20.3177 -5.55112e-17
190 2 199.457 171.664 -5.55112e-17
191 1 84.9965 49.0861 -5.55112e-17
192 2 152.157 116.283 -5.55112e-17
193 2 93.2337 172.19 -5.55112e-17
194 1 39.454 110.978 -5.55112e-17
195 1 194.259 166.741 -5.55112e-17
196 1 4.32724 110.243 -5.55112e-17
197 1 11.4967 64.8261 -5.55112e-17
198 2 60.425 77.8063 -5.55112e-17
199 1 193.97 80.728 -5.55112e-17
200 1 99.3734 2.6216 -5.55112e-17
201 2 211.589 116.986 -5.55112e-17
202 1 187.125 3.21138 -5.55112e-17
203 1 92.9285 111.999 -5.55112e-17
204 1 158.487 162.077 -5.55112e-17
205 2 0.83956 85.2768 -5.55112e-17
206 1 125.659 135.628 -5.55112e-17
207 1 112.717 118.727 -5.55112e-17
208 1 52.3847 53.9004 -5.55112e-17
209 1 134.02 188.332 -5.55112e-17
210 1 180.378 128.885 -5.55112e-17
211 2 178.033 5.40233 -5.55112e-17
212 1 183.165 105.635 -5.55112e-17
213 1 145.679 82.1126 -5.55112e-17
214 1 103.242 58.4048 -5.55112e-17
215 1 86.6011 162.625 -5.55112e-17
216 1 127.127 153.55 -5.55112e-17
217 1 90.8448 113.778 -5.55112e-17
218 2 197.281 139.757 -5.55112e-17
219 1 85.9292 156.634 -5.55112e-17
220 2 89.878 110.822 -5.55112e-17
221 1 21.5231 120.022 -5.55112e-17
222 1 140.733 102.3 -5.55112e-17
223 1 78.9352 180.37 -5.55112e-17
224 2 217.442 7.92506 -5.55112e-17
225 1 53.3004 68.7739 -5.55112e-17
226 1 23.2916 153.292 -5.55112e-17
227 2 48.7229 188.743 -5.55112e-17
228 1 102.193 150.453 -5.55112e-17
229 1 215.56 100.882 -5.55112e-17
230 1 132.527 190.661 -5.55112e-17
231 1 162.869 110.526 -5.55112e-17
232 1 150.915 210.377 -5.55112e-17
233 1 49.4959 46.7006 -5.55112e-17
234 1 110.267 207.81 -5.55112e-17
235 1 180.061 23.3222 -5.55112e-17
236 1 217.222 117.12 -5.55112e-17
237 1 25.4963 111.567 -5.55112e-17
238 1 113.896 123.445 -5.55112e-17
239 2 13.4252 176.648 -5.55112e-17
240 1 134.895 177.569 -5.55112e-17
241 2 103.091 200.687 -5.55112e-17
242 2 42.6173 11.0662 -5.55112e-17
243 2 88.0031 6.66505 -5.55112e-17
244 1 47.3721 110.119 -5.55112e-17
245 1 48.4727 84.7298 -5.55112e-17
246 1 144.484 158.273 -5.55112e-17
247 1 184.102 147.974 -5.55112e-17
248 1 118.913 46.1614 -5.55112e-17
249 1 24.3107 20.1834 -5.55112e-17
250 2 80.8813 80.8453 -5.55112e-17
251 1 92.3435 80.6629 -5.55112e-17
252 1 11.2939 217.735 -5.55112e-17
253 1 116.635 76.2885 -5.55112e-17
254 2 110.963 183.549 -5.55112e-17
255 1 215.453 201.324 -5.55112e-17
256 1 96.5587 184.756 -5.55112e-17
257 1 3.88152 182.224 -5.55112e-17
258 2 84.3131 24.1879 -5.55112e-17
259 1 4.07042 139.817 -5.55112e-17
260 1 115.545 94.1355 -5.55112e-17
261 1 171.013 154.017 -5.55112e-17
262 1 60.4145 68.2227 -5.55112e-17
263 1 6.46866 101.798 -5.55112e-17
264 1 171.573 166.809 -5.55112e-17
265 1 56.167 25.8165 -5.55112e-17
266 1 183.542 96.2512 -5.55112e-17
267 1 119.945 83.905 -5.55112e-17
268 1 41.8122 36.4616 -5.55112e-17
269 1 51.6666 112.091 -5.55112e-17
270 1 141.423 74.9946 -5.55112e-17
271 1 123.495 69.8657 -5.55112e-17
272 1 161.002 190.971 -5.55112e-17
273 1 83.4457 21.2269 -5.55112e-17
274 2 124.586 140.468 -5.55112e-17
275 1 27.0767 130.883 -5.55112e-17
276 2 23.5414 215.285 -5.55112e-17
277 2 174.418 35.5909 -5.55112e-17
278 1 74.722 183.223 -5.55112e-17
279 2 95.6438 63.2659 -5.55112e-17
280 1 1.77755 28.453 -5.55112e-17
281 1 102.209 174.188 -5.55112e-17
282 1 66.3507 163.237 -5.55112e-17
283 1 117.734 158.349 -5.55112e-17
284 1 161.757 42.8073 -5.55112e-17
285 1 19.808 182.59 -5.55112e-17
286 2 94.3936 189.268 -5.55112e-17
287 1 60.5558 40.1942 -5.55112e-17
288 1 189.785 104.27 -5.55112e-17
289 1 91.1103 96.7138 -5.55112e-17
290 1 47.933 196.776 -5.55112e-17
291 1 115.71 157.072 -5.55112e-17
292 2 54.3392 204.39 -5.55112e-17
293 2 139.167 216.861 -5.55112e-17
294 1 131.382 19.0727 -5.55112e-17
295 1 129.227 200.783 -5.55112e-17
296 1 160.822 45.737 -5.55112e-17
297 1 165.586 161.659 -5.55112e-17
298 1 185.723 15.0416 -5.55112e-17
299 1 115.604 82.1516 -5.55112e-17
300 2 56.3141 149.736 -5.55112e-17
301 1 0.514173 26.4012 -5.55112e-17
302 1 93.6638 120.116 -5.55112e-17
303 2 102.25 40.5822 -5.55112e-17
304 2 135.348 205.998 -5.55112e-17
305 1 104.88 94.7377 -5.55112e-17
306 1 77.2281 71.3505 -5.55112e-17
307 1 4.5584 191.773 -5.55112e-17
308 1 87.9179 53.2951 -5.55112e-17
309 2 104.484 136.468 -5.55112e-17
310 1 183.986 84.315 -5.55112e-17
311 1 11.1434 81.6931 -5.55112e-17
312 1 135.689 118.282 -5.55112e-17
313 2 168.455 47.8873 -5.55112e-17
314 1 111.782 64.9249 -5.55112e-17
315 1 78.2419 154.074 -5.55112e-17
316 1 176.386 123.294 -5.55112e-17
317 1 41.917 94.252 -5.55112e-17
318 1 133.027 11.5907 -5.55112e-17
319 1 81.5435 184.064 -5.55112e-17
320 1 139.601 152.658 -5.55112e-17
321 1 35.3077 51.6549 -5.55112e-17
322 1 101.35 104.851 -5.55112e-17
323 1 9.23312 209.722 -5.55112e-17
324 1 131.949 49.2779 -5.55112e-17
325 1 118.558 170.249 -5.55112e-17
326 1 61.506 150.57 -5.55112e-17
327 2 108.223 203.337 -5.55112e-17
328 1 152.497 31.5966 -5.55112e-17
329 2 218.902 63.8186 -5.55112e-17
330 1 188.487 151.701 -5.55112e-17
331 1 172.336 23.0569 -5.55112e-17
332 2 156.77 77.5279 -5.55112e-17
333 1 2.68391 34.9772 -5.55112e-17
334 1 125.928 12.7416 -5.55112e-17
335 1 217.885 194.919 -5.55112e-17
336 1 10.7168 78.508 -5.55112e-17
337 1 174.958 15.189 -5.55112e-17
338 1 129.984 43.7627 -5.55112e-17
339 1 168.89 113.916 -5.55112e-17
340 1 166.568 98.9064 -5.55112e-17
341 1 135.836 7.6209 -5.55112e-17
342 1 185.135 182.675 -5.55112e-17
343 1 128.106 77.0319 -5.55112e-17
344 1 26.8002 31.7214 -5.55112e-17
345 1 57.9368 197.502 -5.55112e-17
346 1 200.861 107.945 -5.55112e-17
347 1 65.0519 33.5942 -5.55112e-17
348 1 150.75 23.2125 -5.55112e-17
349 1 73.0351 101.744 -5.55112e-17
350 2 91.7799 85.6754 -5.55112e-17
351 1 191.374 212.822 -5.55112e-17
352 1 193.875 157.473 -5.55112e-17
353 1 54.709 217.294 -5.55112e-17
354 1 191.435 175.162 -5.55112e-17
355 1 98.5984 120.543 -5.55112e-17
356 1 169.198 204.995 -5.55112e-17
357 1 5.86581 156.05 -5.55112e-17
358 1 217.979 199.977 -5.55112e-17
359 1 189.2 188.376 -5.55112e-17
360 1 49.045 100.641 -5.55112e-17
361 1 114.957 213.699 -5.55112e-17
362 1 47.104 34.0589 -5.55112e-17
363 1 196.705 142.405 -5.55112e-17
364 2 18.4739 45.1933 -5.55112e-17
365 1 156.903 125.747 -5.55112e-17
366 1 125.127 152.25 -5.55112e-17
367 1 2.50867 71.8372 -5.55112e-17
368 1 190.824 76.7514 -5.55112e-17
369 2 88.918 176.451 -5.55112e-17
370 1 55.9731 206.65 -5.55112e-17
371 1 52.5784 157.409 -5.55112e-17
372 2 181.09 77.6312 -5.55112e-17
373 2 149.559 44.5417 -5.55112e-17
374 1 133.256 37.2875 -5.55112e-17
375 1 149.722 132.253 -5.55112e-17
376 1 55.4495 173.832 -5.55112e-17
377 1 201.321 96.8856 -5.55112e-17
378 1 62.9276 158.755 -5.55112e-17
379 1 216.582 18.8079 -5.55112e-17
380 1 157.718 167.072 -5.55112e-17
381 1 212.035 182.429 -5.55112e-17
382 1 99.9948 66.2887 -5.55112e-17
383 1 13.4992 55.9082 -5.55112e-17
384 1 54.229 20.3626 -5.55112e-17
385 1 158.789 80.7508 -5.55112e-17
386 2 71.9774 4.21727 -5.55112e-17
387 1 187.674 5.73204 -5.55112e-17
388 1 55.027 120.002 -5.55112e-17
389 1 135.143 202.944 -5.55112e-17
390 2 181.246 149.43 -5.55112e-17
391 2 13.9767 159.515 -5.55112e-17
392 1 114.498 177.101 -5.55112e-17
393 1 50.1744 130.588 -5.55112e-17
394 1 91.1853 121.2 -5.55112e-17
395 1 20.9961 7.17604 -5.55112e-17
396 1 134.83 147.844 -5.55112e-17
397 1 136.165 75.3579 -5.55112e-17
398 1 188 160.4 -5.55112e-17
399 1 209.068 21.8089 -5.55112e-17
400 1 67.1816 101.534 -5.55112e-17
401 1 79.7442 211.346 -5.55112e-17
402 2 33.3345 122.407 -5.55112e-17
403 1 188.836 216.761 -5.55112e-17
404 1 11.3349 70.186 -5.55112e-17
405 1 180.125 118.78 -5.55112e-17
406 1 157.764 74.6909 -5.55112e-17
407 2 1.43777 37.5537 -5.55112e-17
408 1 21.8179 4.1181 -5.55112e-17
409 1 27.3162 73.6122 -5.55112e-17
410 1 85.5768 5.10694 -5.55112e-17
411 1 193.213 159.776 -5.55112e-17
412 1 68.5854 55.7847 -5.55112e-17
413 1 49.9788 79.9612 -5.55112e-17
414 1 201.174 40.8801 -5.55112e-17
415 1 177.63 170.429 -5.55112e-17
416 1 53.4312 25.2678 -5.55112e-17
417 1 182.526 110.322 -5.55112e-17
418 2 208.057 195.785 -5.55112e-17
419 1 131.859 180.874 -5.55112e-17
420 2 150.35 110.577 -5.55112e-17
421 1 176.619 135.257 -5.55112e-17
422 1 98.9473 38.4497 -5.55112e-17
423 2 196.667 176.28 -5.55112e-17
424 1 137.121 214.47 -5.55112e-17
425 1 133.115 27.4806 -5.55112e-17
426 1 136.615 181.619 -5.55112e-17
427 1 144.234 74.9796 -5.55112e-17
428 1 61.4274 97.4953 -5.55112e-17
429 1 173.278 156.016 -5.55112e-17
430 1 202.666 11.0067 -5.55112e-17
431 1 165.381 186.18 -5.55112e-17
432 1 133.403 17.2961 -5.55112e-17
433 1 87.0895 154.091 -5.55112e-17
434 1 56.0957 75.0514 -5.55112e-17
435 1 121.004 99.7067 -5.55112e-17
436 1 94.8618 11.3854 -5.55112e-17
437 1 192.249 145.909 -5.55112e-17
438 2 85.9124 43.476 -5.55112e-17
439 1 87.285 62.0755 -5.55112e-17
440 1 138.985 70.4677 -5.55112e-17
441 1 182.674 156.235 -5.55112e-17
442 1 122.098 190.961 -5.55112e-17
443 1 197.659 64.0518 -5.55112e-17
444 1 150.554 47.3218 -5.55112e-17
445 1 131.65 32.1986 -5.55112e-17
446 1 180.28 126.558 -5.55112e-17
447 1 68.2589 29.3321 -5.55112e-17
448 1 93.6652 55.8423 -5.55112e-17
449 1 134.867 166.513 -5.55112e-17
450 1 200.363 9.39376 -5.55112e-17
451 1 171.834 211.781 -5.55112e-17
452 1 110.973 158.576 -5.55112e-17
453 1 182.806 158.56 -5.55112e-17
454 1 15.124 208.976 -5.55112e-17
455 1 194.712 31.117 -5.55112e-17
456 1 199.54 177.336 -5.55112e-17
457 1 175.571 113.48 -5.55112e-17
458 1 136.365 183.951 -5.55112e-17
459 1 34.8831 208.224 -5.55112e-17
460 1 138.127 86.8472 -5.55112e-17
461 1 137.275 157.704 -5.55112e-17
462 1 1.84126 110.325 -5.55112e-17
463 1 170.442 50.4629 -5.55112e-17
464 1 146.143 35.4056 -5.55112e-17
465 1 156.117 137.122 -5.55112e-17
466 1 44.289 73.6458 -5.55112e-17
467 1 67.7741 7.41049 -5.55112e-17
468 1 171.807 164.251 -5.55112e-17
469 1 98.9097 84.9017 -5.55112e-17
470 1 83.9306 9.94406 -5.55112e-17
471 1 141.581 218.223 -5.55112e-17
472 1 36.74 35.2048 -5.55112e-17
473 1 103.756 103.498 -5.55112e-17
474 1 90.3505 137.123 -5.55112e-17
475 1 71.0308 153.437 -5.55112e-17
476 2 37.0477 1.31465 -5.55112e-17
477 1 166.419 61.999 -5.55112e-17
478 1 208.725 165.476 -5.55112e-17
479 1 202.366 172.463 -5.55112e-17
480 1 45.8897 213.555 -5.55112e-17
481 1 71.9683 158.586 -5.55112e-17
482 1 153.924 148.129 -5.55112e-17
483 1 92.8711 136.051 -5.55112e-17
484 2 81.6559 33.1503 -5.55112e-17
485 1 40.0586 203.989 -5.55112e-17
486 1 69.2361 5.75101 -5.55112e-17
487 1 80.3038 190.583 -5.55112e-17
488 1 70.3069 66.532 -5.55112e-17
489 1 138.733 98.011 -5.55112e-17
490 1 14.3268 211.342 -5.55112e-17
491 1 134.051 107.531 -5.55112e-17
492 1 48.4402 149.421 -5.55112e-17
493 1 155.24 187.225 -5.55112e-17
494 1 136.479 188.449 -5.55112e-17
495 1 124.081 0.97502 -5.55112e-17
496 2 114.886 198.804 -5.55112e-17
497 1 185.821 35.2179 -5.55112e-17
498 1 75.184 149.005 -5.55112e-17
499 2 139.54 22.7611 -5.55112e-17
500 1 169.411 211.168 -5.55112e-17
501 2 134.036 20.2229 -5.55112e-17
502 2 125.051 149.042 -5.55112e-17
503 1 155.209 195.384 -5.55112e-17
504 1 96.1341 106.641 -5.55112e-17
505 1 214.005 19.4499 -5.55112e-17
506 1 67.2885 130.952 -5.55112e-17
507 1 84.153 99.918 -5.55112e-17
508 1 151.02 19.177 -5.55112e-17
509 2 29.7036 50.5234 -5.55112e-17
510 2 146.651 180.227 -5.55112e-17
511 1 115.647 128.599 -5.55112e-17
512 2 28.1671 53.41 -5.55112e-17
513 1 62.4978 180.309 -5.55112e-17
514 1 49.4927 64.5665 -5.55112e-17
515 1 56.2569 7.85179 -5.55112e-17
516 1 28.5861 167.03 -5.55112e-17
517 1 149.239 105.969 -5.55112e-17
518 2 90.0943 91.5251 -5.55112e-17
519 1 204.099 58.8003 -5.55112e-17
520 2 21.023 65.3276 -5.55112e-17
521 1 204.992 144.803 -5.55112e-17
522 1 56.0941 209.476 -5.55112e-17
523 1 181.982 167.701 -5.55112e-17
524 1 41.1727 29.0263 -5.55112e-17
525 1 66.735 191.704 -5.55112e-17
526 1 169.298 52.6279 -5.55112e-17
527 1 47.865 215.068 -5.55112e-17
528 1 139.815 32.0568 -5.55112e-17
529 1 54.3094 145.497 -5.55112e-17
530 1 140.994 108.382 -5.55112e-17
531 1 59.8549 140.655 -5.55112e-17
532 1 176.243 208.273 -5.55112e-17
533 1 81.2436 140.002 -5.55112e-17
534 1 106.19 156.794 -5.55112e-17
535 1 149.411 147.108 -5.55112e-17
536 1 162.21 71.5421 -5.55112e-17
537 1 168.657 200.128 -5.55112e-17
538 1 139.201 84.4588 -5.55112e-17
539 1 87.9434 27.5169 -5.55112e-17
540 1 133.238 85.9291 -5.55112e-17
541 1 104.551 181.113 -5.55112e-17
542 1 86.2923 64.3858 -5.55112e-17
543 1 76.714 181.725 -5.55112e-17
544 1 149.058 208.576 -5.55112e-17
545 1 3.27998 189.178 -5.55112e-17
546 1 200.637 33.2196 -5.55112e-17
547 1 218.253 142.482 -5.55112e-17
548 1 41.4733 161.571 -5.55112e-17
549 1 198.271 52.151 -5.55112e-17
550 2 29.8851 117.607 -5.55112e-17
551 2 116.442 114.992 -5.55112e-17
552 2 149.92 30.9539 -5.55112e-17
553 1 190.025 12.5695 -5.55112e-17
554 1 187.403 99.23 -5.55112e-17
555 2 176.463 105.872 -5.55112e-17
556 1 150.531 5.97406 -5.55112e-17
557 1 79.7701 60.7348 -5.55112e-17
558 1 152.766 182.922 -5.55112e-17
559 1 201.389 215.168 -5.55112e-17
560 1 110.835 36.4136 -5.55112e-17
561 1 177.845 182.205 -5.55112e-17
562 1 159.86 181.914 -5.55112e-17
563 2 171.967 169.494 -5.55112e-17
564 1 13.2253 182.441 -5.55112e-17
565 1 122.743 207.05 -5.55112e-17
566 1 79.4922 88.1828 -5.55112e-17
567 1 163.07 95.8012 -5.55112e-17
568 1 36.4241 169.711 -5.55112e-17
569 1 46.7184 147.648 -5.55112e-17
570 1 58.1037 126.542 -5.55112e-17
571 1 206.745 180.683 -5.55112e-17
572 1 118.415 100.251 -5.55112e-17
573 1 170.9 134.147 -5.55112e-17
574 1 134.2 161.14 -5.55112e-17
575 1 209.932 119.298 -5.55112e-17
576 1 188.295 136.789 -5.55112e-17
577 1 169.719 208.428 -5.55112e-17
578 1 133.813 198.158 -5.55112e-17
579 1 212.93 30.3798 -5.55112e-17
580 1 162.98 40.2086 -5.55112e-17
581 1 183.801 135.065 -5.55112e-17
582 1 214.328 17.2436 -5.55112e-17
583 1 4.35841 210.33 -5.55112e-17
584 2 26.8927 193.816 -5.55112e-17
585 1 207.801 94.6865 -5.55112e-17
586 1 153.396 212.035 -5.55112e-17
587 1 178.346 44.5103 -5.55112e-17
588 1 62.9538 91.3749 -5.55112e-17
589 1 128.702 217.545 -5.55112e-17
590 1 75.2502 3.79808 -5.55112e-17
591 1 40.3372 176.877 -5.55112e-17
592 1 17.4394 97.2637 -5.55112e-17
593 1 212.651 186.834 -5.55112e-17
594 1 41.5352 174.202 -5.55112e-17
595 1 113.29 105.064 -5.55112e-17
596 1 138.741 38.8529 -5.55112e-17
597 2 190.032 20.726 -5.55112e-17
598 1 216.815 13.4867 -5.55112e-17
599 1 7.16852 19.4659 -5.55112e-17
600 1 162.787 22.2949 -5.55112e-17
601 1 54.5306 165.548 -5.55112e-17
602 1 131.876 22.1937 -5.55112e-17
603 1 42.9457 176.558 -5.55112e-17
604 1 63.8154 164.758 -5.55112e-17
605 2 95.7694 126.823 -5.55112e-17
606 1 141.3 181.89 -5.55112e-17
607 2 147.219 162.63 -5.55112e-17
608 1 141.505 167.939 -5.55112e-17
609 1 34.3677 153.339 -5.55112e-17
610 1 150 173.171 -5.55112e-17
611 1 76.7375 157.974 -5.55112e-17
612 1 18.4504 75.9452 -5.55112e-17
613 1 163.968 148.689 -5.55112e-17
614 2 213.314 193.973 -5.55112e-17
615 1 69.4275 198.171 -5.55112e-17
616 1 161.627 105.605 -5.55112e-17
617 1 87.7579 188.66 -5.55112e-17
618 1 166.109 195.567 -5.55112e-17
619 1 105.221 146.632 -5.55112e-17
620 1 163.379 36.4051 -5.55112e-17
621 1 105.379 59.422 -5.55112e-17
622 1 91.6536 184.579 -5.55112e-17
623 1 179.433 163.263 -5.55112e-17
624 1 35.3968 18.5004 -5.55112e-17
625 1 177.874 76.5495 -5.55112e-17
626 1 68.9066 0.658888 -5.55112e-17
627 1 63.4939 120.095 -5.55112e-17
628 1 94.16 215.324 -5.55112e-17
629 1 49.9665 144.713 -5.55112e-17
630 2 125.08 18.1462 -5.55112e-17
631 1 14.086 102.51 -5.55112e-17
632 1 31.6725 85.9597 -5.55112e-17
633 1 36.2808 197.862 -5.55112e-17
634 1 156.081 63.7739 -5.55112e-17
635 1 102.856 162.673 -5.55112e-17
636 1 156.898 83.1499 -5.55112e-17
637 1 4.27275 39.242 -5.55112e-17
638 1 192.863 24.4209 -5.55112e-17
639 2 49.9667 59.1666 -5.55112e-17
640 1 120.911 162.911 -5.55112e-17
641 1 205.594 101.821 -5.55112e-17
642 1 138.108 51.0663 -5.55112e-17
643 2 167.788 93.8714 -5.55112e-17
644 1 81.0169 20.6808 -5.55112e-17
645 1 114.552 195.872 -5.55112e-17
646 2 9.7831 126.313 -5.55112e-17
647 1 133.672 47.1215 -5.55112e-17
648 1 179.338 72.3351 -5.55112e-17
649 2 52.2252 128.404 -5.55112e-17
650 1 215.412 144.966 -5.55112e-17
651 1 32.0095 192.14 -5.55112e-17
652 1 186.852 180.792 -5.55112e-17
653 1 179.163 11.5368 -5.55112e-17
654 1 190.214 9.70651 -5.55112e-17
655 2 12.6539 122.467 -5.55112e-17
656 1 46.599 181.823 -5.55112e-17
657 2 140.584 185.139 -5.55112e-17
658 1 183.918 36.9361 -5.55112e-17
659 2 184.857 177.701 -5.55112e-17
660 1 77.6206 26.6997 -5.55112e-17
661 1 32.9709 137.901 -5.55112e-17
662 1 4.33976 44.6811 -5.55112e-17
663 1 70.8193 12.5049 -5.55112e-17
664 1 90.5409 60.6418 -5.55112e-17
665 1 140.801 91.5908 -5.55112e-17
666 2 119.748 35.8338 -5.55112e-17
667 1 159.708 78.3772 -5.55112e-17
668 2 126.713 105.026 -5.55112e-17
669 1 109.925 55.7371 -5.55112e-17
670 1 197.643 192.912 -5.55112e-17
671 2 63.784 134.767 -5.55112e-17
672 1 103.953 38.2402 -5.55112e-17
673 1 0.968996 50.9372 -5.55112e-17
674 1 4.2768 133.938 -5.55112e-17
675 1 163.16 57.0171 -5.55112e-17
676 1 95.2149 135.239 -5.55112e-17
677 1 158.51 184.846 -5.55112e-17
678 1 90.1284 198.146 -5.55112e-17
679 2 154.14 209.195 -5.55112e-17
680 1 11.302 45.6624 -5.55112e-17
681 2 177.876 216.069 -5.55112e-17
682 1 27.1607 19.1632 -5.55112e-17
683 1 50.9039 200.312 -5.55112e-17
684 1 129.446 186.622 -5.55112e-17
685 1 152.532 55.9983 -5.55112e-17
686 1 70.91 83.9645 -5.55112e-17
687 1 169.577 10.5847 -5.55112e-17
688 1 5.85758 99.2748 -5.55112e-17
689 2 104.839 1.97626 -5.55112e-17
690 1 118.313 13.11 -5.55112e-17
691 1 43.4089 32.5858 -5.55112e-17
692 1 99.9991 132.571 -5.55112e-17
693 1 126.367 7.43637 -5.55112e-17
694 1 48.6706 183.215 -5.55112e-17
695 1 19.5042 81.0489 -5.55112e-17
696 1 122.401 107.157 -5.55112e-17
697 1 121.701 7.44527 -5.55112e-17
698 1 127.64 72.0249 -5.55112e-17
699 1 209.841 139.094 -5.55112e-17
700 1 59.4481 217.697 -5.55112e-17
701 1 218.583 66.9489 -5.55112e-17
702 1 38.253 42.9192 -5.55112e-17
703 2 21.4033 142.695 -5.55112e-17
704 1 107.667 197.554 -5.55112e-17
705 2 117.556 120.451 -5.55112e-17
706 1 73.111 136.26 -5.55112e-17
707 1 122.627 16.6104 -5.55112e-17
708 1 50.8824 122.147 -5.55112e-17
709 1 1.92467 206.504 -5.55112e-17
710 1 6.36299 111.784 -5.55112e-17
711 1 97.5432 158.084 -5.55112e-17
712 1 209.813 146.208 -5.55112e-17
713 1 144.936 188.269 -5.55112e-17
714 1 137.914 56.816 -5.55112e-17
715 1 3.1425 4.71545 -5.55112e-17
716 1 75.6783 139.929 -5.55112e-17
717 1 184.039 137.416 -5.55112e-17
718 1 198.132 158.339 -5.55112e-17
719 2 37.3039 67.2477 -5.55112e-17
720 1 130.537 61.8308 -5.55112e-17
721 1 152.203 40.371 -5.55112e-17
722 1 112.234 111.317 -5.55112e-17
723 2 1.41051 144.261 -5.55112e-17
724 1 57.6755 10.4557 -5.55112e-17
725 1 55.0252 23.206 -5.55112e-17
726 1 100.679 80.4224 -5.55112e-17
727 1 2.28355 138.265 -5.55112e-17
728 2 217.398 113.989 -5.55112e-17
729 1 152.387 1.55331 -5.55112e-17
730 1 57.8835 175.297 -5.55112e-17
731 1 87.1266 217.635 -5.55112e-17
732 1 65.2789 11.5932 -5.55112e-17
733 1 77.11 9.3951 -5.55112e-17
734 1 86.753 57.6581 -5.55112e-17
735 1 53.1896 60.8662 -5.55112e-17
736 2 211.811 56.7536 -5.55112e-17
737 1 152.253 105.303 -5.55112e-17
738 1 31.6034 160.433 -5.55112e-17
739 1 131.145 198.127 -5.55112e-17
740 1 32.5398 135.284 -5.55112e-17
741 2 196.392 28.5151 -5.55112e-17
742 1 82.2864 55.4857 -5.55112e-17
743 1 142.822 72.5286 -5.55112e-17
744 2 195.308 162.033 -5.55112e-17
745 1 139.599 25.7438 -5.55112e-17
746 1 46.3283 211.252 -5.55112e-17
747 2 217.25 54.9311 -5.55112e-17
748 1 132.719 34.6112 -5.55112e-17
749 1 40.7971 191.611 -5.55112e-17
750 1 28.54 140.708 -5.55112e-17
751 1 76.8004 49.0775 -5.55112e-17
752 1 156.457 214.373 -5.55112e-17
753 1 114.256 164.927 -5.55112e-17
754 1 6.94729 208.79 -5.55112e-17
755 1 137.512 151.815 -5.55112e-17
756 2 149.804 0.090594 -5.55112e-17
757 1 14.215 156.49 -5.55112e-17
758 1 44.1835 162.057 -5.55112e-17
759 1 76.1368 155.53 -5.55112e-17
760 1 171.183 115.103 -5.55112e-17
761 1 124.079 3.59099 -5.55112e-17
762 1 204.841 85.3778 -5.55112e-17
763 1 59.0998 105.785 -5.55112e-17
764 2 101.652 147.39 -5.55112e-17
765 1 38.6999 54.7852 -5.55112e-17
766 1 107.878 25.7492 -5.55112e-17
767 1 20.5799 43.4117 -5.55112e-17
768 1 159.884 209 -5.55112e-17
769 1 34.9252 72.0898 -5.55112e-17
770 2 60.3216 65.3924 -5.55112e-17
771 1 141.661 179.676 -5.55112e-17
772 1 78.8035 98.6011 -5.55112e-17
773 1 92.8481 155.045 -5.55112e-17
774 1 154.255 161.096 -5.55112e-17
775 1 175.166 61.3817 -5.55112e-17
776 1 97.6985 4.61709 -5.55112e-17
777 1 212.817 213.215 -5.55112e-17
778 1 26.0823 190.926 -5.55112e-17
779 1 197.314 179.297 -5.55112e-17
780 1 203.271 142.881 -5.55112e-17
781 1 21.1562 103.54 -5.55112e-17
782 1 204.619 82.8441 -5.55112e-17
783 1 139.715 0.715762 -5.55112e-17
784 2 214.549 98.0189 -5.55112e-17
785 1 128.812 6.30426 -5.55112e-17
786 1 113.271 134.828 -5.55112e-17
787 1 214.077 218.13 -5.55112e-17
788 1 131.149 87.3599 -5.55112e-17
789 2 198.248 120.683 -5.55112e-17
790 1 81.7443 35.7888 -5.55112e-17
791 2 153.539 135.576 -5.55112e-17
792 2 217.257 33.0344 -5.55112e-17
793 2 125.203 67.6973 -5.55112e-17
794 1 48.3148 217.619 -5.55112e-17
795 1 166.971 70.6935 -5.55112e-17
796 1 77.0174 33.8369 -5.55112e-17
797 1 130.785 129.779 -5.55112e-17
798 2 59.1267 7.81113 -5.55112e-17
799 2 41.2778 67.042 -5.55112e-17
800 2 118.988 20.5271 -5.55112e-17
801 1 43.8332 112.446 -5.55112e-17
802 1 18.7776 57.3269 -5.55112e-17
803 1 166.715 112.65 -5.55112e-17
804 2 103.009 82.2237 -5.55112e-17
805 1 13.7598 119.718 -5.55112e-17
806 1 40.8427 149.377 -5.55112e-17
807 2 126.734 43.2035 -5.55112e-17
808 1 3.08346 98.4546 -5.55112e-17
809 2 161.664 80.6139 -5.55112e-17
810 1 124.24 44.8156 -5.55112e-17
811 1 212.35 34.5713 -5.55112e-17
812 1 171.537 18.7021 -5.55112e-17
813 2 111.387 140.171 -5.55112e-17
814 1 126.353 94.3664 -5.55112e-17
815 1 128.613 1.12368 -5.55112e-17
816 1 12.5502 10.1791 -5.55112e-17
817 1 148.478 197.163 -5.55112e-17
818 1 101.897 180.489 -5.55112e-17
819 1 89.9696 158.752 -5.55112e-17
820 1 182.725 152.341 -5.55112e-17
821 1 45.069 125.063 -5.55112e-17
822 2 23.6124 192.677 -5.55112e-17
823 2 33.5865 111.796 -5.55112e-17
824 1 69.6234 62.7374 -5.55112e-17
825 1 31.6787 214.975 -5.55112e-17
826 1 10.1686 162.827 -5.55112e-17
827 1 199.8 204.949 -5.55112e-17
828 1 198.153 163.29 -5.55112e-17
829 1 13.4845 17.2803 -5.55112e-17
830 1 41.3982 46.8719 -5.55112e-17
831 1 11.2979 205.951 -5.55112e-17
832 1 204.309 69.8263 -5.55112e-17
833 1 25.0176 17.6598 -5.55112e-17
834 1 75.0325 185.798 -5.55112e-17
835 1 14.5064 2.06607 -5.55112e-17
836 1 208.06 129.787 -5.55112e-17
837 1 6.83826 61.8409 -5.55112e-17
838 1 209.546 16.4882 -5.55112e-17
839 2 167.63 141.923 -5.55112e-17
840 1 93.6825 82.9639 -5.55112e-17
841 2 100.492 5.65854 -5.55112e-17
842 1 23.7676 13.5068 -5.55112e-17
843 2 154.018 153.448 -5.55112e-17
844 1 50.2713 192.844 -5.55112e-17
845 1 45.1495 164.519 -5.55112e-17
846 1 126.656 48.5309 -5.55112e-17
847 1 40.6479 155.116 -5.55112e-17
848 1 132.315 63.4416 -5.55112e-17
849 1 177.433 153.231 -5.55112e-17
850 1 101.536 190.351 -5.55112e-17
851 1 87.7986 0.988595 -5.55112e-17
852 1 45.8889 134.711 -5.55112e-17
853 1 100.812 119.388 -5.55112e-17
854 1 41.5522 89.6594 -5.55112e-17
855 1 122.748 83.784 -5.55112e-17
856 1 96.8188 116.443 -5.55112e-17
857 1 104.443 10.7243 -5.55112e-17