ITEM: TIMESTEP
0
ITEM: NUMBER OF ATOMS
7200
ITEM: BOX BOUNDS xy xz yz pp pp pp
0.0000000000000000e+00 2.1900000000000000e+02 0.0000000000000000e+00
0.0000000000000000e+00 2.1900000000000000e+02 0.0000000000000000e+00
-3.6499999999999999e-01 3.6499999999999999e-01 0.0000000000000000e+00
ITEM: ATOMS id type x y z
1 1 126.631 159.018 -5.55112e-17
2 1 58.8746 208.713 -5.55112e-17
3 1 166.144 22.4175 -5.55112e-17
4 1 33.4967 170.532 -5.55112e-17
5 1 163.049 155.422 -5.55112e-17
6 1 108.65 191.981 -5.55112e-17
7 1 179.939 173.625 -5.55112e-17
8 2 78.3482 36.2501 -5.55112e-17
9 1 51.25 179.248 -5.55112e-17
10 2 196.147 73.1324 -5.55112e-17
11 1 129.359 103.354 -5.55112e-17
12 1 137.276 3.29808 -5.55112e-17
13 2 91.3781 36.1121 -5.55112e-17
14 1 77.4381 14.0751 -5.55112e-17
15 1 135.489 24.0883 -5.55112e-17
16 2 189.303 94.5311 -5.55112e-17
17 1 66.9164 25.8622 -5.55112e-17
18 2 181.12 116.192 -5.55112e-17
19 1 43.6789 27.9727 -5.55112e-17
20 1 71.5372 70.7464 -5.55112e-17
21 1 102.908 27.0395 -5.55112e-17
22 2 173.924 170.259 -5.55112e-17
23 2 163.782 207.043 -5.55112e-17
24 1 41.0938 157.107 -5.55112e-17
25 1 1.19813 182.867 -5.55112e-17
26 2 73.9543 183.877 -5.55112e-17
27 1 34.7906 103.753 -5.55112e-17
28 2 37.7439 168.069 -5.55112e-17
29 1 195.973 217.69 -5.55112e-17
30 1 22.7956 59.5144 -5.55112e-17
31 1 27.6978 50.0328 -5.55112e-17
32 1 109.342 137.022 -5.55112e-17
33 1 68.4698 103.344 -5.55112e-17
34 1 175.8 104.126 -5.55112e-17
35 1 114.365 32.0657 -5.55112e-17
36 1 23.0552 182.98 -5.55112e-17
37 2 135.824 200.539 -5.55112e-17
38 1 108.159 47.1157 -5.55112e-17
39 1 213.678 211.548 -5.55112e-17
40 1 143.475 20.0037 -5.55112e-17
41 1 147.21 54.4621 -5.55112e-17
42 1 6.03151 191.461 -5.55112e-17
43 1 137.598 168.788 -5.55112e-17
44 1 60.4933 59.5231 -5.55112e-17
45 1 176.446 183.918 -5.55112e-17
46 1 4.13545 29.9163 -5.55112e-17
47 1 131.029 63.2928 -5.55112e-17
48 2 36.5268 81.6515 -5.55112e-17
49 1 209.758 197.999 -5.55112e-17
50 1 135.7 68.2836 -5.55112e-17
51 1 15.9197 46.9993 -5.55112e-17
52 1 134.314 101.005 -5.55112e-17
53 1 100.515 157.011 -5.55112e-17
54 1 108.566 216.075 -5.55112e-17
55 1 173.911 47.4449 -5.55112e-17
56 1 4.68041 138.113 -5.55112e-17
57 2 217.939 207.946 -5.55112e-17
58 1 22.6353 115.895 -5.55112e-17
59 1 206.983 108.113 -5.55112e-17
60 2 48.7616 129.466 -5.55112e-17
61 2 188.657 41.7095 -5.55112e-17
62 1 184.75 148.333 -5.55112e-17
63 1 111.407 109.758 -5.55112e-17
64 1 137.004 50.9233 -5.55112e-17
65 1 180.699 88.1719 -5.55112e-17
66 1 78.7912 120.267 -5.55112e-17
67 1 217.123 130.992 -5.55112e-17
68 1 192.881 138.97 -5.55112e-17
69 1 38.3866 79.3014 -5.55112e-17
70 1 6.98468 169.034 -5.55112e-17
71 1 194.123 82.3009 -5.55112e-17
72 1 128.872 100.85 -5.55112e-17
73 1 136.334 15.0835 -5.55112e-17
74 1 53.369 156.693 -5.55112e-17
75 2 20.8209 133.334 -5.55112e-17
76 1 186.132 181.019 -5.55112e-17
77 1 93.7746 188.398 -5.55112e-17
78 1 153.562 85.3853 -5.55112e-17
79 2 183.329 23.8544 -5.55112e-17
80 1 119.86 158.231 -5.55112e-17
81 1 64.9887 217.033 -5.55112e-17
82 1 20.7879 38.5687 -5.55112e-17
83 2 60.4868 158.325 -5.55112e-17
84 1 31.7021 58.1427 -5.55112e-17
85 1 69.1462 58.1873 -5.55112e-17
86 1 16.3875 22.8311 -5.55112e-17
87 1 200.329 180.909 -5.55112e-17
88 1 73.5702 119.814 -5.55112e-17
89 2 45.7531 139.178 -5.55112e-17
90 2 143.016 51.5138 -5.55112e-17
91 1 26.5178 6.9607 -5.55112e-17
92 2 172.282 130.43 -5.55112e-17
93 1 191.744 87.2149 -5.55112e-17
94 2 165.538 160.842 -5.55112e-17
95 1 47.0692 106.746 -5.55112e-17
96 1 84.0065 199.904 -5.55112e-17
97 1 135.033 55.5539 -5.55112e-17
98 1 207.41 202.111 -5.55112e-17
99 1 153.76 43.912 -5.55112e-17
100 1 213.492 84.0649 -5.55112e-17
101 1 34.9412 71.7624 -5.55112e-17
102 1 13.4399 143.041 -5.55112e-17
103 1 162.763 25.4947 -5.55112e-17
104 1 121.729 160.195 -5.55112e-17
105 1 164.567 59.8389 -5.55112e-17
106 1 128.543 37.9432 -5.55112e-17
107 2 186.606 12.7253 -5.55112e-17
108 1 40.2783 72.4277 -5.55112e-17
109 1 119.493 134.322 -5.55112e-17
110 1 64.9249 27.6506 -5.55112e-17
111 1 28.9658 92.1591 -5.55112e-17
112 1 133.342 149.076 -5.55112e-17
113 1 95.6794 186.198 -5.55112e-17
114 1 105.829 209.547 -5.55112e-17
115 1 55.8639 86.3478 -5.55112e-17
116 2 22.9449 30.069 -5.55112e-17
117 1 108.843 58.6963 -5.55112e-17
118 1 168.92 139.01 -5.55112e-17
119 2 134.722 167.454 -5.55112e-17
120 1 137.955 5.51055 -5.55112e-17
121 1 92.1724 114.504 -5.55112e-17
122 1 165.898 189.719 -5.55112e-17
123 1 33.677 158.256 -5.55112e-17
124 1 170.292 158.094 -5.55112e-17
125 1 46.5554 177.022 -5.55112e-17
126 1 109.996 147.166 -5.55112e-17
127 1 147.233 89.9901 -5.55112e-17
128 1 61.0746 129.05 -5.55112e-17
129 1 206.343 73.8749 -5.55112e-17
130 1 162.834 102.188 -5.55112e-17
131 1 29.2434 21.5819 -5.55112e-17
132 2 136.436 86.9706 -5.55112e-17
133 1 78.3981 124.533 -5.55112e-17
134 1 185.405 69.6492 -5.55112e-17
135 1 186.08 97.3134 -5.55112e-17
136 1 18.6661 56.4927 -5.55112e-17
137 1 62.7651 188.191 -5.55112e-17
138 1 119.865 53.8906 -5.55112e-17
139 1 207.488 153.786 -5.55112e-17
140 2 86.7822 185.324 -5.55112e-17
141 1 213.01 193.937 -5.55112e-17
142 2 155.127 103.885 -5.55112e-17
143 1 172.712 40.5716 -5.55112e-17
144 2 53.3933 174.14 -5.55112e-17
145 1 152.375 167.577 -5.55112e-17
146 1 63.2709 183.6 -5.55112e-17
147 1 103.42 112.183 -5.55112e-17
148 1 90.1911 116.178 -5.55112e-17
149 1 66.3632 51.1695 -5.55112e-17
150 1 100.964 46.9901 -5.55112e-17
151 1 67.4118 53.272 -5.55112e-17
152 1 195.549 62.4012 -5.55112e-17
153 2 176.615 35.2 -5.55112e-17
154 1 49.5677 204.304 -5.55112e-17
155 1 135.251 177.993 -5.55112e-17
156 2 34.6194 129.056 -5.55112e-17
157 1 147.56 104.712 -5.55112e-17
158 1 199.265 178.702 -5.55112e-17
159 1 115.588 68.7588 -5.55112e-17
160 1 161.945 209.481 -5.55112e-17
161 1 113.891 108.274 -5.55112e-17
162 1 202.786 156.022 -5.55112e-17
163 1 178.163 103.48 -5.55112e-17
164 1 197.015 105.432 -5.55112e-17
165 1 43.2988 9.28837 -5.55112e-17
166 2 181.488 49.6334 -5.55112e-17
167 1 170.289 57.9325 -5.55112e-17
168 1 58.5045 193.228 -5.55112e-17
169 1 44.9034 7.59666 -5.55112e-17
170 1 76.1266 188.947 -5.55112e-17
171 1 70.6426 86.1356 -5.55112e-17
172 1 39.6268 106.471 -5.55112e-17
173 1 144.73 207.594 -5.55112e-17
174 1 79.1536 183.887 -5.55112e-17
175 2 40.9977 61.8751 -5.55112e-17
176 1 200.602 176.426 -5.55112e-17
177 2 161.593 99.2939 -5.55112e-17
178 1 80.6165 152.069 -5.55112e-17
179 1 27.2717 115.475 -5.55112e-17
180 1 90.3789 33.5171 -5.55112e-17
181 1 128.279 153.654 -5.55112e-17
182 2 90.6822 53.216 -5.55112e-17
183 1 73.1449 178.495 -5.55112e-17
184 1 63.1995 130.303 -5.55112e-17
185 2 65.9103 22.8615 -5.55112e-17
186 2 118.987 108.991 -5.55112e-17
187 1 36.073 170.876 -5.55112e-17
188 1 203.793 170.663 -5.55112e-17
189 1 5.76801 109.284 -5.55112e-17
190 2 207.93 148.448 -5.55112e-17
191 1 47.6512 7.12293 -5.55112e-17
192 2 115.182 187.923 -5.55112e-17
193 2 73.6037 22.2901 -5.55112e-17
194 1 107.831 115.585 -5.55112e-17
195 1 55.7549 52.5085 -5.55112e-17
196 1 65.0066 60.4243 -5.55112e-17
197 1 89.7938 148.651 -5.55112e-17
198 2 68.0454 85.8938 -5.55112e-17
199 1 178.62 195.566 -5.55112e-17
200 1 217.291 186.236 -5.55112e-17
201 2 184.973 20.3092 -5.55112e-17
202 1 131.438 111.547 -5.55112e-17
203 1 30.3388 209.958 -5.55112e-17
204 1 82.199 5.64717 -5.55112e-17
205 2 217.067 50.0846 -5.55112e-17
206 1 69.7362 210.444 -5.55112e-17
207 1 104.143 36.814 -5.55112e-17
208 1 179.645 94.3539 -5.55112e-17
209 1 183.429 182.41 -5.55112e-17
210 1 99.2624 214.846 -5.55112e-17
211 2 61.5847 108.319 -5.55112e-17
212 1 145.148 123.101 -5.55112e-17
213 1 114.055 158.392 -5.55112e-17
214 1 27.4983 43.0309 -5.55112e-17
215 1 118.496 25.4457 -5.55112e-17
216 1 13.4378 107.733 -5.55112e-17
217 1 87.7414 46.0566 -5.55112e-17
218 2 45.5928 121.127 -5.55112e-17
219 1 40.9597 64.926 -5.55112e-17
220 2 123.175 7.91981 -5.55112e-17
221 1 69.9336 54.1944 -5.55112e-17
222 1 183.318 103.137 -5.55112e-17
223 1 218.892 125.851 -5.55112e-17
224 2 107.095 17.6346 -5.55112e-17
225 1 54.2885 203.642 -5.55112e-17
226 1 43.6133 186.279 -5.55112e-17
227 2 147.458 35.718 -5.55112e-17
228 1 41.7997 192.965 -5.55112e-17
229 1 101.647 147.054 -5.55112e-17
230 1 150.745 85.3721 -5.55112e-17
231 1 151.694 53.552 -5.55112e-17
232 1 164.663 106.459 -5.55112e-17
233 1 102.259 0.196969 -5.55112e-17
234 1 57.5429 163.213 -5.55112e-17
235 1 19.5758 130.543 -5.55112e-17
236 1 73.1837 50.0889 -5.55112e-17
237 1 157.55 47.2886 -5.55112e-17
238 1 124.509 77.7636 -5.55112e-17
239 2 107.285 49.624 -5.55112e-17
240 1 41.6271 173.231 -5.55112e-17
241 2 58.981 120.042 -5.55112e-17
242 2 214.476 36.4668 -5.55112e-17
243 2 159.51 212.965 -5.55112e-17
244 1 71.2036 25.3735 -5.55112e-17
245 1 116.594 2.30409 -5.55112e-17
246 1 50.2492 172.227 -5.55112e-17
247 1 144.093 115.151 -5.55112e-17
248 1 34.1776 20.2161 -5.55112e-17
249 1 175.021 1.59121 -5.55112e-17
250 2 53.3312 50.4856 -5.55112e-17
251 1 140.009 30.0112 -5.55112e-17
252 1 17.7731 191.039 -5.55112e-17
253 1 136.288 75.7722 -5.55112e-17
254 2 169.376 165.711 -5.55112e-17
255 1 37.3382 49.9645 -5.55112e-17
256 1 204.157 124.696 -5.55112e-17
257 1 168.294 104.128 -5.55112e-17
258 2 65.9444 104.549 -5.55112e-17
259 1 74.0695 160.459 -5.55112e-17
260 1 11.9683 118.275 -5.55112e-17
261 1 7.31931 74.9497 -5.55112e-17
262 1 117.992 124.741 -5.55112e-17
263 1 181.72 113.511 -5.55112e-17
264 1 34.7219 51.1169 -5.55112e-17
265 1 117.474 122.243 -5.55112e-17
266 1 160.218 155.742 -5.55112e-17
267 1 57.14 0.677067 -5.55112e-17
268 1 81.8322 176.237 -5.55112e-17
269 1 3.25842 191.577 -5.55112e-17
270 1 77.8306 28.978 -5.55112e-17
271 1 76.5131 38.7804 -5.55112e-17
272 1 161.111 96.6307 -5.55112e-17
273 1 124.892 2.87273 -5.55112e-17
274 2 113.195 145.523 -5.55112e-17
275 1 88.8898 104.903 -5.55112e-17
276 2 66.4405 68.766 -5.55112e-17
277 2 0.681331 34.1731 -5.55112e-17
278 1 41.6529 19.3077 -5.55112e-17
279 2 0.13198 98.0812 -5.55112e-17
280 1 184.843 191.815 -5.55112e-17
281 1 73.2975 129 -5.55112e-17
282 1 182.337 69.946 -5.55112e-17
283 1 149.151 52.9403 -5.55112e-17
284 1 195.076 64.7552 -5.55112e-17
285 1 195.155 164.919 -5.55112e-17
286 2 146.917 115.146 -5.55112e-17
287 1 186.371 7.65575 -5.55112e-17
288 1 21.6774 57.1638 -5.55112e-17
289 1 105.69 8.09434 -5.55112e-17
290 1 164.439 215.314 -5.55112e-17
291 1 182.52 202.455 -5.55112e-17
292 2 32.338 202.484 -5.55112e-17
293 2 191.634 193.604 -5.55112e-17
294 1 146.062 160.071 -5.55112e-17
295 1 90.7 70.6827 -5.55112e-17
296 1 81.6592 72.9423 -5.55112e-17
297 1 124.835 104.623 -5.55112e-17
298 1 118.56 100.023 -5.55112e-17
299 1 19.2296 18.2709 -5.55112e-17
300 2 185.654 198.649 -5.55112e-17
301 1 140.648 181.434 -5.55112e-17
302 1 22.0447 156.303 -5.55112e-17
303 2 132.866 4.09538 -5.55112e-17
304 2 131.792 108.192 -5.55112e-17
305 1 19.2265 78.7332 -5.55112e-17
306 1 176.892 47.343 -5.55112e-17
307 1 100.107 198.393 -5.55112e-17
308 1 213.695 27.6861 -5.55112e-17
309 2 124.31 18.6127 -5.55112e-17
310 1 204.171 75.6336 -5.55112e-17
311 1 43.0528 51.946 -5.55112e-17
312 1 103.352 46.8082 -5.55112e-17
313 2 101.948 152.063 -5.55112e-17
314 1 82.9267 126.135 -5.55112e-17
315 1 75.2594 36.8096 -5.55112e-17
316 1 44.4331 218.332 -5.55112e-17
317 1 193.949 19.136 -5.55112e-17
318 1 91.4917 169.148 -5.55112e-17
319 1 165.141 33.5492 -5.55112e-17
320 1 142.713 5.07702 -5.55112e-17
321 1 48.784 153.942 -5.55112e-17
322 1 104.986 91.6628 -5.55112e-17
323 1 179.002 148.058 -5.55112e-17
324 1 145.25 37.4256 -5.55112e-17
325 1 172.339 59.9237 -5.55112e-17
326 1 130.235 186.166 -5.55112e-17
327 2 36.8136 178.757 -5.55112e-17
328 1 180.996 158.079 -5.55112e-17
329 2 17.4217 42.1336 -5.55112e-17
330 1 113.603 216.531 -5.55112e-17
331 1 120.189 80.3628 -5.55112e-17
332 2 37.4146 185.683 -5.55112e-17
333 1 93.8656 40.5837 -5.55112e-17
334 1 114.776 209.589 -5.55112e-17
335 1 129.816 123.398 -5.55112e-17
336 1 84.8329 160.662 -5.55112e-17
337 1 66.3262 96.1718 -5.55112e-17
338 1 78.7652 0.752431 -5.55112e-17
339 1 107.317 161.204 -5.55112e-17
340 1 196.605 3.06697 -5.55112e-17
341 1 61.0903 202.017 -5.55112e-17
342 1 73.8606 42.5371 -5.55112e-17
343 1 66.7393 58.1345 -5.55112e-17
344 1 70.8641 42.1888 -5.55112e-17
345 1 11.6502 141.152 -5.55112e-17
346 1 150.166 30.9753 -5.55112e-17
347 1 99.5431 104.766 -5.55112e-17
348 1 41.3926 211.98 -5.55112e-17
349 1 80.7874 7.68788 -5.55112e-17
350 2 117.961 73.2814 -5.55112e-17
351 1 5.53436 48.8436 -5.55112e-17
352 1 78.9952 133.565 -5.55112e-17
353 1 178.478 50.1699 -5.55112e-17
354 1 176.502 42.5868 -5.55112e-17
355 1 61.9527 135.195 -5.55112e-17
356 1 10.8643 193.361 -5.55112e-17
357 1 20.5539 152.295 -5.55112e-17
358 1 41.2187 205.867 -5.55112e-17
359 1 156.131 67.8126 -5.55112e-17
360 1 185.521 186.814 -5.55112e-17
361 1 161.874 178.889 -5.55112e-17
362 1 174.924 24.8543 -5.55112e-17
363 1 25.8752 52.3046 -5.55112e-17
364 2 184.782 79.2817 -5.55112e-17
365 1 145.675 1.75439 -5.55112e-17
366 1 180.484 77.3221 -5.55112e-17
367 1 100.594 116.423 -5.55112e-17
368 1 2.53813 71.4713 -5.55112e-17
369 2 64.0953 180.956 -5.55112e-17
370 1 22.857 15.9562 -5.55112e-17
371 1 73.9888 210.936 -5.55112e-17
372 2 132.668 58.7874 -5.55112e-17
373 2 53.1105 151.141 -5.55112e-17
374 1 124.328 149.509 -5.55112e-17
375 1 9.63985 41.6557 -5.55112e-17
376 1 161.027 138.753 -5.55112e-17
377 1 5.44591 186.258 -5.55112e-17
378 1 132.517 164.923 -5.55112e-17
379 1 18.262 107.194 -5.55112e-17
380 1 201.068 216.484 -5.55112e-17
381 1 201.773 189.761 -5.55112e-17
382 1 199.126 53.856 -5.55112e-17
383 1 124.263 38.8009 -5.55112e-17
384 1 150.585 181.127 -5.55112e-17
385 1 215.02 124.261 -5.55112e-17
386 2 194.076 123.408 -5.55112e-17
387 1 151.459 203.406 -5.55112e-17
388 1 94.1364 107.633 -5.55112e-17
389 1 112.154 208.493 -5.55112e-17
390 2 196.411 174.089 -5.55112e-17
391 2 195.335 38.2123 -5.55112e-17
392 1 193.833 112.495 -5.55112e-17
393 1 28.7206 174.963 -5.55112e-17
394 1 170.226 24.3189 -5.55112e-17
395 1 190.705 9.68768 -5.55112e-17
396 1 4.41191 54.6973 -5.55112e-17
397 1 119.048 175.231 -5.55112e-17
398 1 171.52 21.8905 -5.55112e-17
399 1 166.257 6.82246 -5.55112e-17
400 1 138.098 19.3986 -5.55112e-17
401 1 104.464 80.9663 -5.55112e-17
402 2 151.297 66.4681 -5.55112e-17
403 1 3.27081 164.836 -5.55112e-17
404 1 172.152 8.46637 -5.55112e-17
405 1 166.129 166.165 -5.55112e-17
406 1 35.482 143.544 -5.55112e-17
407 2 169.133 37.5022 -5.55112e-17
408 1 165.018 132.481 -5.55112e-17
409 1 200.315 187.805 -5.55112e-17
410 1 103.51 139.606 -5.55112e-17
411 1 84.0207 212.263 -5.55112e-17
412 1 12.7275 105.294 -5.55112e-17
413 1 17.9003 116.889 -5.55112e-17
414 1 112.721 115.993 -5.55112e-17
415 1 96.4197 159.318 -5.55112e-17
416 1 167.678 65.9602 -5.55112e-17
417 1 184.066 172.377 -5.55112e-17
418 2 156.918 151.108 -5.55112e-17
419 1 63.1842 150.804 -5.55112e-17
420 2 101.515 44.1751 -5.55112e-17
421 1 98.3397 139.758 -5.55112e-17
422 1 208.084 52.3727 -5.55112e-17
423 2 31.8662 98.3925 -5.55112e-17
424 1 188.984 14.434 -5.55112e-17
425 1 46.771 193.27 -5.55112e-17
426 1 132.057 55.9978 -5.55112e-17
427 1 174.627 56.5125 -5.55112e-17
428 1 140.908 78.8046 -5.55112e-17
429 1 139.948 167.455 -5.55112e-17
430 1 89.7941 40.5616 -5.55112e-17
431 1 207.272 156.316 -5.55112e-17
432 1 56.1132 38.4072 -5.55112e-17
433 1 16.0369 53.6121 -5.55112e-17
434 1 185.608 208.846 -5.55112e-17
435 1 72.167 100.702 -5.55112e-17
436 1 127.373 98.6757 -5.55112e-17
437 1 77.7542 74.5903 -5.55112e-17
438 2 95.4989 87.0726 -5.55112e-17
439 1 59.281 45.2024 -5.55112e-17
440 1 55.4709 107.169 -5.55112e-17
441 1 61.9748 57.154 -5.55112e-17
442 1 210.04 190.284 -5.55112e-17
443 1 24.6075 194.167 -5.55112e-17
444 1 134.34 13.1314 -5.55112e-17
445 1 210.858 45.4935 -5.55112e-17
446 1 76.6575 126.296 -5.55112e-17
447 1 200.833 25.9528 -5.55112e-17
448 1 103.399 208.825 -5.55112e-17
449 1 10.8041 180.19 -5.55112e-17
450 1 30.5172 124.495 -5.55112e-17
451 1 187.717 104.909 -5.55112e-17
452 1 189.683 29.4186 -5.55112e-17
453 1 215.344 30.2787 -5.55112e-17
454 1 203.254 142.364 -5.55112e-17
455 1 49.073 98.9549 -5.55112e-17
456 1 164.492 16.4764 -5.55112e-17
457 1 209.779 92.6313 -5.55112e-17
458 1 115.829 185.063 -5.55112e-17
459 1 89.0785 164.034 -5.55112e-17
460 1 116.407 13.6646 -5.55112e-17
461 1 192.37 1.73672 -5.55112e-17
462 1 161.583 44.713 -5.55112e-17
463 1 153.108 41.5368 -5.55112e-17
464 1 46.8854 0.259421 -5.55112e-17
465 1 149.583 140.611 -5.55112e-17
466 1 205.692 131.805 -5.55112e-17
467 1 205.441 16.7736 -5.55112e-17
468 1 118.634 82.7838 -5.55112e-17
469 1 155.447 24.9673 -5.55112e-17
470 1 194.389 21.444 -5.55112e-17
471 1 144.496 172.821 -5.55112e-17
472 1 157.775 201.484 -5.55112e-17
473 1 58.2952 107.318 -5.55112e-17
474 1 27.0393 25.8669 -5.55112e-17
475 1 95.1923 101.789 -5.55112e-17
476 2 122.762 75.6511 -5.55112e-17
477 1 46.8746 197.696 -5.55112e-17
478 1 139.241 34.0612 -5.55112e-17
479 1 92.9236 71.7339 -5.55112e-17
480 1 214.308 173.944 -5.55112e-17
481 1 130.856 6.38186 -5.55112e-17
482 1 61.424 103.773 -5.55112e-17
483 1 131.678 85.161 -5.55112e-17
484 2 10.2437 69.9635 -5.55112e-17
485 1 37.2384 141.994 -5.55112e-17
486 1 216.28 18.2388 -5.55112e-17
487 1 35.9777 139.504 -5.55112e-17
488 1 27.6437 9.09601 -5.55112e-17
489 1 159.741 101.722 -5.55112e-17
490 1 152.168 37.293 -5.55112e-17
491 1 203.355 144.695 -5.55112e-17
492 1 112.264 34.106 -5.55112e-17
493 1 122.872 216.66 -5.55112e-17
494 1 205.853 192.419 -5.55112e-17
495 1 78.3278 193.526 -5.55112e-17
496 2 83.6242 154.008 -5.55112e-17
497 1 45.4549 161.182 -5.55112e-17
498 1 27.1634 193.654 -5.55112e-17
499 2 36.0095 13.009 -5.55112e-17
500 1 21.1728 184.789 -5.55112e-17
501 2 151.444 155.586 -5.55112e-17
502 2 139.338 131.031 -5.55112e-17
503 1 215.42 206.821 -5.55112e-17
504 1 8.11205 216.066 -5.55112e-17
505 1 46.2551 174.323 -5.55112e-17
506 1 72.1805 131.209 -5.55112e-17
507 1 30.3883 187.009 -5.55112e-17
508 1 200.981 97.6819 -5.55112e-17
509 2 144.191 42.7828 -5.55112e-17
510 2 30.1589 148.725 -5.55112e-17
511 1 48.4099 134.179 -5.55112e-17
512 2 48.0551 96.2328 -5.55112e-17
513 1 199.179 21.4004 -5.55112e-17
514 1 64.5127 135.992 -5.55112e-17
515 1 195.924 9.15988 -5.55112e-17
516 1 47.8073 148.476 -5.55112e-17
517 1 176.111 132.555 -5.55112e-17
518 2 99.5817 142.308 -5.55112e-17
519 1 143.026 155.756 -5.55112e-17
520 2 114.391 53.2994 -5.55112e-17
521 1 41.1062 144.58 -5.55112e-17
522 1 193.333 134.213 -5.55112e-17
523 1 184.654 35.384 -5.55112e-17
524 1 17.388 3.9524 -5.55112e-17
525 1 94.7445 35.3668 -5.55112e-17
526 1 83.2574 143.547 -5.55112e-17
527 1 39.2417 33.4044 -5.55112e-17
528 1 113.977 42.1811 -5.55112e-17
529 1 119.607 151.282 -5.55112e-17
530 1 207.468 59.09 -5.55112e-17
531 1 174.813 178.252 -5.55112e-17
532 1 112.447 81.2962 -5.55112e-17
533 1 161.471 65.8885 -5.55112e-17
534 1 149.199 33.2354 -5.55112e-17
535 1 181.693 16.2526 -5.55112e-17
536 1 135.123 2.65005 -5.55112e-17
537 1 150.63 121.503 -5.55112e-17
538 1 43.0657 102.755 -5.55112e-17
539 1 203.302 139.947 -5.55112e-17
540 1 176.659 108.91 -5.55112e-17
541 1 40.0015 218.778 -5.55112e-17
542 1 210.025 150.263 -5.55112e-17
543 1 9.52719 102.517 -5.55112e-17
544 1 23.4382 185.657 -5.55112e-17
545 1 58.71 103.646 -5.55112e-17
546 1 198.381 90.3571 -5.55112e-17
547 1 157.868 17.2777 -5.55112e-17
548 1 179.065 52.6799 -5.55112e-17
549 1 7.46832 199.435 -5.55112e-17
550 2 85.8657 94.4162 -5.55112e-17
551 2 33.2351 106.166 -5.55112e-17
552 2 210.127 11.0249 -5.55112e-17
553 1 154.695 31.6998 -5.55112e-17
554 1 111.891 58.3547 -5.55112e-17
555 2 122.882 23.9281 -5.55112e-17
556 1 10.5355 37.2389 -5.55112e-17
557 1 16.7872 162.015 -5.55112e-17
558 1 14.2106 154.067 -5.55112e-17
559 1 62.1793 100.741 -5.55112e-17
560 1 2.41172 52.6337 -5.55112e-17
561 1 25.0776 78.1579 -5.55112e-17
562 1 125.953 128.578 -5.55112e-17
563 2 128.193 51.9527 -5.55112e-17
564 1 164.525 62.3727 -5.55112e-17
565 1 200.288 67.1284 -5.55112e-17
566 1 215.338 142.639 -5.55112e-17
567 1 174.294 213.78 -5.55112e-17
568 1 23.2623 0.314078 -5.55112e-17
569 1 86.1857 91.5266 -5.55112e-17
570 1 156.986 185.866 -5.55112e-17
571 1 123.074 64.9691 -5.55112e-17
572 1 58.9029 19.7717 -5.55112e-17
573 1 7.54873 159.067 -5.55112e-17
574 1 160.539 68.3398 -5.55112e-17
575 1 43.0563 130.333 -5.55112e-17
576 1 63.6306 201.845 -5.55112e-17
577 1 43.4296 99.6299 -5.55112e-17
578 1 10.6059 59.6493 -5.55112e-17
579 1 24.5886 97.8952 -5.55112e-17
580 1 158.931 187.369 -5.55112e-17
581 1 129.531 190.424 -5.55112e-17
582 1 111.507 36.5424 -5.55112e-17
583 1 58.7118 213.576 -5.55112e-17
584 2 182.556 131.651 -5.55112e-17
585 1 136.744 21.757 -5.55112e-17
586 1 211.54 76.0857 -5.55112e-17
587 1 143.558 61.1286 -5.55112e-17
588 1 150.163 58.2213 -5.55112e-17
589 1 101.435 60.3242 -5.55112e-17
590 1 122.617 37.1189 -5.55112e-17
591 1 107.952 92.807 -5.55112e-17
592 1 199.999 99.784 -5.55112e-17
593 1 185.936 194.318 -5.55112e-17
594 1 18.9383 90.1711 -5.55112e-17
595 1 72.8625 112.039 -5.55112e-17
596 1 181.975 191.427 -5.55112e-17
597 2 191.236 58.696 -5.55112e-17
598 1 13.0684 191.743 -5.55112e-17
599 1 201.276 19.916 -5.55112e-17
600 1 157.359 158.986 -5.55112e-17
601 1 213.141 53.6379 -5.55112e-17
602 1 144.602 35.0506 -5.55112e-17
603 1 153.81 21.2208 -5.55112e-17
604 1 129.305 40.3147 -5.55112e-17
605 2 32.7125 85.4203 -5.55112e-17
606 1 29.765 196.652 -5.55112e-17
607 2 15.6422 56.3015 -5.55112e-17
608 1 191.467 41.8091 -5.55112e-17
609 1 202.649 158.786 -5.55112e-17
610 1 194.146 35.2394 -5.55112e-17
611 1 103.033 32.1294 -5.55112e-17
612 1 151.262 22.4205 -5.55112e-17
613 1 158.996 56.8867 -5.55112e-17
614 2 68.0689 77.1036 -5.55112e-17
615 1 83.2406 118.221 -5.55112e-17
616 1 2.53843 68.7019 -5.55112e-17
617 1 13.9973 34.2207 -5.55112e-17
618 1 37.7021 160.483 -5.55112e-17
619 1 11.5352 201.978 -5.55112e-17
620 1 36.258 199.147 -5.55112e-17
621 1 91.3954 176.337 -5.55112e-17
622 1 55.98 78.6723 -5.55112e-17
623 1 113.669 24.9487 -5.55112e-17
624 1 80.1761 33.7329 -5.55112e-17
625 1 158.419 2.36839 -5.55112e-17
626 1 71.4522 11.0806 -5.55112e-17
627 1 99.1471 152.291 -5.55112e-17
628 1 80.2654 68.032 -5.55112e-17
629 1 31.8209 188.911 -5.55112e-17
630 2 135.345 48.6356 -5.55112e-17
631 1 207.374 9.67606 -5.55112e-17
632 1 52.348 74.9127 -5.55112e-17
633 1 186.798 33.7793 -5.55112e-17
634 1 183.383 210.213 -5.55112e-17
635 1 192.978 11.5367 -5.55112e-17
636 1 198.667 165.031 -5.55112e-17
637 1 140.274 189.225 -5.55112e-17
638 1 75.7537 178.762 -5.55112e-17
639 2 170.888 47.0283 -5.55112e-17
640 1 1.77724 207.552 -5.55112e-17
641 1 145.601 213.362 -5.55112e-17
642 1 87.9491 20.5185 -5.55112e-17
643 2 147.303 217.565 -5.55112e-17
644 1 67.7207 109.326 -5.55112e-17
645 1 171.473 4.39894 -5.55112e-17
646 2 127.255 87.7935 -5.55112e-17
647 1 186.527 2.6041 -5.55112e-17
648 1 16.4465 71.6703 -5.55112e-17
649 2 40.2656 110.508 -5.55112e-17
650 1 169.296 34.3785 -5.55112e-17
651 1 161.012 34.0329 -5.55112e-17
652 1 22.1934 96.8093 -5.55112e-17
653 1 216.834 156.556 -5.55112e-17
654 1 97.4568 101.224 -5.55112e-17
655 2 87.7164 205.979 -5.55112e-17
656 1 124.723 47.5552 -5.55112e-17
657 2 53.7541 166.24 -5.55112e-17
658 1 147.589 77.9777 -5.55112e-17
659 2 17.7397 28.1253 -5.55112e-17
660 1 2.02394 111.089 -5.55112e-17
661 1 187.729 133.042 -5.55112e-17
662 1 160.499 114.283 -5.55112e-17
663 1 28.4823 157.449 -5.55112e-17
664 1 88.7405 91.4895 -5.55112e-17
665 1 207.985 122.422 -5.55112e-17
666 2 50.8792 79.6228 -5.55112e-17
667 1 9.60481 26.1199 -5.55112e-17
668 2 71.5316 14.467 -5.55112e-17
669 1 208.925 115.726 -5.55112e-17
670 1 165.576 48.2049 -5.55112e-17
671 2 107.472 142.491 -5.55112e-17
672 1 191.464 89.3838 -5.55112e-17
673 1 64.4096 86.3715 -5.55112e-17
674 1 30.0529 72.0736 -5.55112e-17
675 1 172.117 145.419 -5.55112e-17
676 1 76.4384 214.343 -5.55112e-17
677 1 138.393 118.798 -5.55112e-17
678 1 140.088 156.129 -5.55112e-17
679 2 114.008 134.14 -5.55112e-17
680 1 81.0637 154.441 -5.55112e-17
681 2 46.5524 10.0151 -5.55112e-17
682 1 74.7712 88.7436 -5.55112e-17
683 1 108.824 165.801 -5.55112e-17
684 1 84.4466 102.06 -5.55112e-17
685 1 47.8236 79.2382 -5.55112e-17
686 1 47.8331 101.365 -5.55112e-17
687 1 133.177 63.9702 -5.55112e-17
688 1 126.294 49.6275 -5.55112e-17
689 2 132.895 135.095 -5.55112e-17
690 1 119.441 167.589 -5.55112e-17
691 1 163.286 112.932 -5.55112e-17
692 1 44.651 53.7226 -5.55112e-17
693 1 202.87 99.0364 -5.55112e-17
694 1 19.5821 10.2828 -5.55112e-17
695 1 155.696 140.24 -5.55112e-17
696 1 207.39 12.1538 -5.55112e-17
697 1 215.832 39.0837 -5.55112e-17
698 1 170.026 128.011 -5.55112e-17
699 1 57.288 14.9123 -5.55112e-17
700 1 37.5549 0.86643 -5.55112e-17
701 1 83.3911 8.04037 -5.55112e-17
702 1 192.262 66.1645 -5.55112e-17
703 2 35.2168 4.92534 -5.55112e-17
704 1 137.14 171.261 -5.55112e-17
705 2 127.631 42.6998 -5.55112e-17
706 1 29.6812 68.6564 -5.55112e-17
707 1 171.146 207.955 -5.55112e-17
708 1 98.5617 119.69 -5.55112e-17
709 1 142.124 59.2021 -5.55112e-17
710 1 149.775 135.158 -5.55112e-17
711 1 196.992 40.4086 -5.55112e-17
712 1 180.369 27.902 -5.55112e-17
713 1 52.2436 214.505 -5.55112e-17
714 1 29.7896 89.8742 -5.55112e-17
715 1 138.486 36.3357 -5.55112e-17
716 1 114.465 199.491 -5.55112e-17
717 1 217.115 119.634 -5.55112e-17
718 1 207.91 41.8107 -5.55112e-17
719 2 32.5021 143.628 -5.55112e-17
720 1 202.731 150.552 -5.55112e-17
721 1 76.1767 203.597 -5.55112e-17
722 1 55.3891 121.391 -5.55112e-17
723 2 129.056 168.609 -5.55112e-17
724 1 106.286 97.0767 -5.55112e-17
725 1 57.3223 199.729 -5.55112e-17
726 1 178.581 75.7135 -5.55112e-17
727 1 13.4703 151.664 -5.55112e-17
728 2 81.7199 77.6577 -5.55112e-17
729 1 108.414 13.0468 -5.55112e-17
730 1 150.933 150.328 -5.55112e-17
731 1 65.8292 39.1138 -5.55112e-17
732 1 39.0757 56.2626 -5.55112e-17
733 1 218.35 55.9607 -5.55112e-17
734 1 17.413 145.875 -5.55112e-17
735 1 174.993 130.056 -5.55112e-17
736 2 92.6358 59.1658 -5.55112e-17
737 1 1.00202 185.21 -5.55112e-17
738 1 97.0586 126.447 -5.55112e-17
739 1 132.738 172.11 -5.55112e-17
740 1 170.544 28.8632 -5.55112e-17
741 2 14.2671 88.9436 -5.55112e-17
742 1 59.5635 171.326 -5.55112e-17
743 1 75.9924 134.761 -5.55112e-17
744 2 199.523 116.95 -5.55112e-17
745 1 35.1923 201.654 -5.55112e-17
746 1 66.143 117.155 -5.55112e-17
747 2 190.963 136.631 -5.55112e-17
748 1 151.697 169.915 -5.55112e-17
749 1 214.209 214.039 -5.55112e-17
750 1 14.1202 45.1179 -5.55112e-17
751 1 88.2786 69.0231 -5.55112e-17
752 1 184.514 56.0265 -5.55112e-17
753 1 53.5971 80.1483 -5.55112e-17
754 1 33.9831 100.982 -5.55112e-17
755 1 217.822 143.147 -5.55112e-17
756 2 78.9126 17.063 -5.55112e-17
757 1 177.139 73.3498 -5.55112e-17
758 1 102.029 114.266 -5.55112e-17
759 1 172.554 24.2855 -5.55112e-17
760 1 146.003 80.0794 -5.55112e-17
761 1 41.0775 42.1614 -5.55112e-17
762 1 25.1391 27.4299 -5.55112e-17
763 1 117.384 206.211 -5.55112e-17
764 2 110.276 189.528 -5.55112e-17
765 1 7.82828 22.3338 -5.55112e-17
766 1 87.2135 177.756 -5.55112e-17
767 1 121.117 203.152 -5.55112e-17
768 1 55.2619 27.01 -5.55112e-17
769 1 145.216 215.788 -5.55112e-17
770 2 58.3524 148.955 -5.55112e-17
771 1 202.145 48.9783 -5.55112e-17
772 1 133.157 117.148 -5.55112e-17
773 1 60.725 95.7781 -5.55112e-17
774 1 29.5202 129.081 -5.55112e-17
775 1 85.8243 47.446 -5.55112e-17
776 1 26.125 163.775 -5.55112e-17
777 1 139.014 125.846 -5.55112e-17
778 1 99.4631 0.313182 -5.55112e-17
779 1 107.381 207.23 -5.55112e-17
780 1 115.761 56.3135 -5.55112e-17
781 1 105.532 149.06 -5.55112e-17
782 1 56.5063 109.628 -5.55112e-17
783 1 129.821 11.5428 -5.55112e-17
784 2 194.664 103.687 -5.55112e-17
785 1 11.0339 170.324 -5.55112e-17
786 1 199.374 59.5055 -5.55112e-17
787 1 127.082 14.1639 -5.55112e-17
788 1 117.617 173.182 -5.55112e-17
789 2 152.215 87.837 -5.55112e-17
790 1 183.158 76.8563 -5.55112e-17
791 2 121.559 144.917 -5.55112e-17
792 2 205.36 163.256 -5.55112e-17
793 2 47.0279 182.431 -5.55112e-17
794 1 7.6325 149.401 -5.55112e-17
795 1 140.225 96.7114 -5.55112e-17
796 1 38.0275 10.426 -5.55112e-17
797 1 131.36 28.5404 -5.55112e-17
798 2 25.4112 140.063 -5.55112e-17
799 2 16.974 203.41 -5.55112e-17
800 2 44.8898 215.5 -5.55112e-17
801 1 191.126 183.532 -5.55112e-17
802 1 123.634 191.465 -5.55112e-17
803 1 31.6064 40.8832 -5.55112e-17
804 2 122.046 103.794 -5.55112e-17
805 1 18.3382 39.475 -5.55112e-17
806 1 169.528 130.796 -5.55112e-17
807 2 209.206 74.5715 -5.55112e-17
808 1 22.6192 68.8433 -5.55112e-17
809 2 9.95585 75.5067 -5.55112e-17
810 1 74.4951 176.237 -5.55112e-17
811 1 132.089 40.4909 -5.55112e-17
812 1 177.24 167.557 -5.55112e-17
813 2 91 49.6161 -5.55112e-17
814 1 0.318301 140.592 -5.55112e-17
815 1 173.035 200.034 -5.55112e-17
816 1 156.889 55.8342 -5.55112e-17
817 1 177.578 151.962 -5.55112e-17
818 1 117.195 59.0696 -5.55112e-17
819 1 62.4766 153.354 -5.55112e-17
820 1 46.9797 131.808 -5.55112e-17
821 1 25.1057 42.8057 -5.55112e-17
822 2 187.509 204.004 -5.55112e-17
823 2 66.8231 33.8077 -5.55112e-17
824 1 200.525 157.765 -5.55112e-17
825 1 198.501 185.73 -5.55112e-17
826 1 150.768 145.476 -5.55112e-17
827 1 136.009 94.7699 -5.55112e-17
828 1 67.439 36.835 -5.55112e-17
829 1 137.805 89.8556 -5.55112e-17
830 1 163.827 28.0002 -5.55112e-17
831 1 179.806 202.411 -5.55112e-17
832 1 104.234 44.5424 -5.55112e-17
833 1 118.472 132.054 -5.55112e-17
834 1 89.8517 208.749 -5.55112e-17
835 1 201.177 130.521 -5.55112e-17
836 1 38.6433 140.028 -5.55112e-17
837 1 110.047 120.422 -5.55112e-17
838 1 29.3388 102.583 -5.55112e-17
839 2 170.914 218.301 -5.55112e-17
840 1 137.461 17.14 -5.55112e-17
841 2 31.591 19.4011 -5.55112e-17
842 1 75.1823 110.996 -5.55112e-17
843 2 168.231 81.7953 -5.55112e-17
844 1 88.4337 13.3051 -5.55112e-17
845 1 135.728 98.7955 -5.55112e-17
846 1 54.6065 134.602 -5.55112e-17
847 1 27.8001 104.414 -5.55112e-17
848 1 143.629 79.1236 -5.55112e-17
849 1 1.42665 37.1178 -5.55112e-17
850 1 94.99 193.168 -5.55112e-17
851 1 44.1437 42.569 -5.55112e-17
852 1 108.145 187.578 -5.55112e-17
853 1 16.2642 101.218 -5.55112e-17
854 1 17.871 124.534 -5.55112e-17
855 1 100.253 11.4463 -5.55112e-17
856 1 97.3421 169.881 -5.55112e-17