ITEM: TIMESTEP
0
ITEM: NUMBER OF ATOMS
7200
ITEM: BOX BOUNDS xy xz yz pp pp pp
0.0000000000000000e+00 2.1900000000000000e+02 0.0000000000000000e+00
0.0000000000000000e+00 2.1900000000000000e+02 0.0000000000000000e+00
-3.6499999999999999e-01 3.6499999999999999e-01 0.0000000000000000e+00
ITEM: ATOMS id type x y z
1 1 11.6936 22.271 -5.55112e-17
2 1 39.9614 16.7752 -5.55112e-17
3 1 38.9387 48.7845 -5.55112e-17
4 1 13.2452 23.9464 -5.55112e-17
5 1 28.1591 58.5192 -5.55112e-17
6 1 89.6193 153.363 -5.55112e-17
7 1 201.072 74.4691 -5.55112e-17
8 2 5.483 156.764 -5.55112e-17
9 1 116.493 174.996 -5.55112e-17
10 2 157.941 5.62843 -5.55112e-17
11 1 13.5618 40.2961 -5.55112e-17
12 1 81.2866 37.8577 -5.55112e-17
13 2 106.024 128.865 -5.55112e-17
14 1 141.822 169.847 -5.55112e-17
15 1 106.54 138.462 -5.55112e-17
16 2 162.691 116.278 -5.55112e-17
17 1 16.6324 136.079 -5.55112e-17
18 2 206.301 145.876 -5.55112e-17
19 1 201.72 136.24 -5.55112e-17
20 1 66.9583 123.839 -5.55112e-17
21 1 207.695 109.697 -5.55112e-17
22 2 187.972 5.25804 -5.55112e-17
23 2 90.9865 156.18 -5.55112e-17
24 1 12.7797 151.314 -5.55112e-17
25 1 28.4302 19.0685 -5.55112e-17
26 2 134.343 95.0866 -5.55112e-17
27 1 128.567 101.198 -5.55112e-17
28 2 24.4278 77.4873 -5.55112e-17
29 1 64.6689 53.0494 -5.55112e-17
30 1 18.8758 110.963 -5.55112e-17
31 1 185.878 178.081 -5.55112e-17
32 1 176.769 154.325 -5.55112e-17
33 1 147.187 45.1052 -5.55112e-17
34 1 71.9716 9.1364 -5.55112e-17
35 1 2.72101 121.661 -5.55112e-17
36 1 163.453 124.933 -5.55112e-17
37 2 29.8348 152.793 -5.55112e-17
38 1 187.451 193.691 -5.55112e-17
39 1 126.546 66.9745 -5.55112e-17
40 1 216.494 194.639 -5.55112e-17
41 1 210.008 61.3752 -5.55112e-17
42 1 78.9755 208.551 -5.55112e-17
43 1 115.283 32.721 -5.55112e-17
44 1 35.3765 70.5421 -5.55112e-17
45 1 209.217 208.589 -5.55112e-17
46 1 40.158 145.187 -5.55112e-17
47 1 189.683 66.1143 -5.55112e-17
48 2 12.2356 172.834 -5.55112e-17
49 1 80.6147 164.662 -5.55112e-17
50 1 72.3607 91.5754 -5.55112e-17
51 1 26.5373 133.938 -5.55112e-17
52 1 177.953 6.11272 -5.55112e-17
53 1 38.5774 167.032 -5.55112e-17
54 1 45.7446 66.6349 -5.55112e-17
55 1 28.4739 143.633 -5.55112e-17
56 1 138.209 185.648 -5.55112e-17
57 2 98.6573 114.667 -5.55112e-17
58 1 39.9594 211.627 -5.55112e-17
59 1 72.964 29.8939 -5.55112e-17
60 2 82.5951 1.66793 -5.55112e-17
61 2 136.461 214.72 -5.55112e-17
62 1 192.959 113.072 -5.55112e-17
63 1 133.871 57.2708 -5.55112e-17
64 1 140.83 209.755 -5.55112e-17
65 1 43.0332 70.3287 -5.55112e-17
66 1 124.042 24.4708 -5.55112e-17
67 1 16.2906 97.1131 -5.55112e-17
68 1 28.7265 93.6391 -5.55112e-17
69 1 182.491 115.843 -5.55112e-17
70 1 26.4769 21.0368 -5.55112e-17
71 1 30.5779 57.3558 -5.55112e-17
72 1 158.091 15.759 -5.55112e-17
73 1 96.5597 84.0579 -5.55112e-17
74 1 172.929 121.398 -5.55112e-17
75 2 151.222 70.3878 -5.55112e-17
76 1 161.933 25.8486 -5.55112e-17
77 1 79.5517 175.827 -5.55112e-17
78 1 191.571 125.487 -5.55112e-17
79 2 77.6846 178.412 -5.55112e-17
80 1 30.4606 52.8615 -5.55112e-17
81 1 70.5443 190.481 -5.55112e-17
82 1 217.407 83.6636 -5.55112e-17
83 2 159.278 87.9433 -5.55112e-17
84 1 147.886 63.2665 -5.55112e-17
85 1 145.12 208.687 -5.55112e-17
86 1 212.083 107.597 -5.55112e-17
87 1 99.7843 60.8692 -5.55112e-17
88 1 110.53 147.936 -5.55112e-17
89 2 45.5613 11.047 -5.55112e-17
90 2 105.21 124.853 -5.55112e-17
91 1 141.491 126.825 -5.55112e-17
92 2 64.1445 7.73834 -5.55112e-17
93 1 173.929 93.5316 -5.55112e-17
94 2 24.1577 157.857 -5.55112e-17
95 1 124.917 41.3731 -5.55112e-17
96 1 170.481 140.616 -5.55112e-17
97 1 176.14 178.644 -5.55112e-17
98 1 62.4361 54.8609 -5.55112e-17
99 1 148.915 18.7316 -5.55112e-17
100 1 35.7531 21.7955 -5.55112e-17
101 1 104.779 191.183 -5.55112e-17
102 1 66.433 105.833 -5.55112e-17
103 1 150.897 110.458 -5.55112e-17
104 1 38.7642 174.646 -5.55112e-17
105 1 160.942 129.072 -5.55112e-17
106 1 194.902 180.175 -5.55112e-17
107 2 179.808 154.67 -5.55112e-17
108 1 127.21 60.7384 -5.55112e-17
109 1 77.2822 121.83 -5.55112e-17
110 1 47.0095 39.3127 -5.55112e-17
111 1 104.15 32.1538 -5.55112e-17
112 1 142.335 207.553 -5.55112e-17
113 1 9.79284 43.3519 -5.55112e-17
114 1 41.2834 25.9164 -5.55112e-17
115 1 166.493 173.939 -5.55112e-17
116 2 69.7155 166.529 -5.55112e-17
117 1 175.72 128.191 -5.55112e-17
118 1 202.736 61.7324 -5.55112e-17
119 2 63.8841 161.117 -5.55112e-17
120 1 97.6514 184.066 -5.55112e-17
121 1 58.4252 51.3966 -5.55112e-17
122 1 57.6681 39.6695 -5.55112e-17
123 1 18.0887 131.234 -5.55112e-17
124 1 218.789 109.334 -5.55112e-17
125 1 131.75 129.722 -5.55112e-17
126 1 1.76519 206.192 -5.55112e-17
127 1 177.161 24.4986 -5.55112e-17
128 1 205.187 25.2379 -5.55112e-17
129 1 137.627 188.218 -5.55112e-17
130 1 60.8903 125.382 -5.55112e-17
131 1 194.859 134.526 -5.55112e-17
132 2 111.708 208.057 -5.55112e-17
133 1 165.828 20.941 -5.55112e-17
134 1 53.8554 121.586 -5.55112e-17
135 1 162.68 171.404 -5.55112e-17
136 1 185.145 152.343 -5.55112e-17
137 1 35.1755 59.7279 -5.55112e-17
138 1 109.145 174.431 -5.55112e-17
139 1 48.8307 1.71666 -5.55112e-17
140 2 12.2277 137.347 -5.55112e-17
141 1 111.973 21.5663 -5.55112e-17
142 2 164.648 18.0103 -5.55112e-17
143 1 160.917 90.6169 -5.55112e-17
144 2 97.1066 214.743 -5.55112e-17
145 1 55.2798 57.3352 -5.55112e-17
146 1 151.902 15.1591 -5.55112e-17
147 1 88.3473 0.0559816 -5.55112e-17
148 1 61.9488 210.277 -5.55112e-17
149 1 79.1651 15.8199 -5.55112e-17
150 1 182.217 19.2867 -5.55112e-17
151 1 34.1006 138.816 -5.55112e-17
152 1 118.812 89.5106 -5.55112e-17
153 2 170.591 62.7747 -5.55112e-17
154 1 73.2935 137.6 -5.55112e-17
155 1 56.1943 109.438 -5.55112e-17
156 2 94.855 95.6798 -5.55112e-17
157 1 109.956 171.841 -5.55112e-17
158 1 38.5454 41.8021 -5.55112e-17
159 1 30.6651 45.8489 -5.55112e-17
160 1 157.447 107.125 -5.55112e-17
161 1 45.8799 77.0248 -5.55112e-17
162 1 121.444 49.3298 -5.55112e-17
163 1 164.876 176 -5.55112e-17
164 1 210.038 133.552 -5.55112e-17
165 1 16.045 115.074 -5.55112e-17
166 2 66.6498 108.857 -5.55112e-17
167 1 161.052 196.513 -5.55112e-17
168 1 147.755 134.18 -5.55112e-17
169 1 98.1575 188.125 -5.55112e-17
170 1 34.3368 113.748 -5.55112e-17
171 1 95.5954 151.339 -5.55112e-17
172 1 190.162 94.369 -5.55112e-17
173 1 13.9851 11.0445 -5.55112e-17
174 1 120.82 162.397 -5.55112e-17
175 2 140.693 167.047 -5.55112e-17
176 1 84.3229 184.089 -5.55112e-17
177 2 205.015 35.8179 -5.55112e-17
178 1 167.858 92.9884 -5.55112e-17
179 1 206.564 204.16 -5.55112e-17
180 1 132.201 189.239 -5.55112e-17
181 1 67.6042 197.575 -5.55112e-17
182 2 60.2839 185.87 -5.55112e-17
183 1 67.6838 65.9927 -5.55112e-17
184 1 209.446 149.991 -5.55112e-17
185 2 5.36328 42.0105 -5.55112e-17
186 2 97.1314 23.0823 -5.55112e-17
187 1 42.6021 2.94267 -5.55112e-17
188 1 34.5314 178.516 -5.55112e-17
189 1 16.6116 173.169 -5.55112e-17
190 2 119.074 10.7875 -5.55112e-17
191 1 22.8043 130.368 -5.55112e-17
192 2 76.0584 212.408 -5.55112e-17
193 2 57.8959 5.03467 -5.55112e-17
194 1 49.6086 161.289 -5.55112e-17
195 1 182.599 199 -5.55112e-17
196 1 45.5499 97.2586 -5.55112e-17
197 1 33.0576 200.577 -5.55112e-17
198 2 48.5551 191.201 -5.55112e-17
199 1 115.071 80.9966 -5.55112e-17
200 1 60.9955 207.841 -5.55112e-17
201 2 161.099 11.2393 -5.55112e-17
202 1 89.4291 28.878 -5.55112e-17
203 1 66.386 68.5937 -5.55112e-17
204 1 155.649 24.3182 -5.55112e-17
205 2 157.612 50.2804 -5.55112e-17
206 1 212.376 62.7128 -5.55112e-17
207 1 208.184 169.71 -5.55112e-17
208 1 163.824 85.7828 -5.55112e-17
209 1 13.1232 214.938 -5.55112e-17
210 1 37.516 117.725 -5.55112e-17
211 2 9.6586 107.271 -5.55112e-17
212 1 89.4421 75.4076 -5.55112e-17
213 1 44.2173 44.3623 -5.55112e-17
214 1 110.639 215.658 -5.55112e-17
215 1 183.738 118.197 -5.55112e-17
216 1 188.754 191.847 -5.55112e-17
217 1 198.239 45.5727 -5.55112e-17
218 2 112.548 68.6097 -5.55112e-17
219 1 77.2568 190.449 -5.55112e-17
220 2 49.435 169.874 -5.55112e-17
221 1 147.398 28.7842 -5.55112e-17
222 1 87.4092 5.2452 -5.55112e-17
223 1 65.8802 151.435 -5.55112e-17
224 2 19.0029 185.953 -5.55112e-17
225 1 26.0484 187.69 -5.55112e-17
226 1 135.915 36.0528 -5.55112e-17
227 2 83.893 177.327 -5.55112e-17
228 1 206.828 75.9837 -5.55112e-17
229 1 7.74722 178.605 -5.55112e-17
230 1 180.871 80.3125 -5.55112e-17
231 1 161.986 202.275 -5.55112e-17
232 1 67.5564 28.3248 -5.55112e-17
233 1 10.6447 81.4063 -5.55112e-17
234 1 26.5202 201.582 -5.55112e-17
235 1 192.717 45.2191 -5.55112e-17
236 1 169.476 82.9632 -5.55112e-17
237 1 205.183 12.6468 -5.55112e-17
238 1 212.417 65.2857 -5.55112e-17
239 2 41.6039 132.074 -5.55112e-17
240 1 92.6025 97.3353 -5.55112e-17
241 2 22.8931 179.4 -5.55112e-17
242 2 165.428 49.9414 -5.55112e-17
243 2 30.3521 31.888 -5.55112e-17
244 1 170.144 40.4204 -5.55112e-17
245 1 61.8376 122.924 -5.55112e-17
246 1 161.378 53.294 -5.55112e-17
247 1 204.652 123.918 -5.55112e-17
248 1 86.2564 107.522 -5.55112e-17
249 1 70.2697 25.5115 -5.55112e-17
250 2 93.7667 68.3372 -5.55112e-17
251 1 148.737 65.733 -5.55112e-17
252 1 110.706 142.973 -5.55112e-17
253 1 24.2384 173.732 -5.55112e-17
254 2 65.7677 140.167 -5.55112e-17
255 1 5.32681 103.846 -5.55112e-17
256 1 61.9455 30.2867 -5.55112e-17
257 1 49.2975 203.021 -5.55112e-17
258 2 112.5 45.7753 -5.55112e-17
259 1 156.446 8.8622 -5.55112e-17
260 1 200.449 64.8127 -5.55112e-17
261 1 118.781 141.439 -5.55112e-17
262 1 171.115 49.9968 -5.55112e-17
263 1 119.923 187.165 -5.55112e-17
264 1 32.1097 33.9034 -5.55112e-17
265 1 36.2838 165.773 -5.55112e-17
266 1 98.6788 85.4782 -5.55112e-17
267 1 78.3717 66.562 -5.55112e-17
268 1 214.649 122.978 -5.55112e-17
269 1 140.704 161.409 -5.55112e-17
270 1 215.974 145.433 -5.55112e-17
271 1 149.671 125.737 -5.55112e-17
272 1 2.34197 173.917 -5.55112e-17
273 1 45.3543 140.384 -5.55112e-17
274 2 21.2535 120.55 -5.55112e-17
275 1 96.7266 119.749 -5.55112e-17
276 2 80.0573 26.2065 -5.55112e-17
277 2 33.7972 6.21104 -5.55112e-17
278 1 74.0673 175.105 -5.55112e-17
279 2 69.7659 37.5156 -5.55112e-17
280 1 100.664 154.472 -5.55112e-17
281 1 91.5615 54.8442 -5.55112e-17
282 1 8.12507 98.7984 -5.55112e-17
283 1 3.46305 82.1663 -5.55112e-17
284 1 18.326 56.0163 -5.55112e-17
285 1 183.956 167.091 -5.55112e-17
286 2 140.802 129.636 -5.55112e-17
287 1 71.9593 216.194 -5.55112e-17
288 1 145.362 124.039 -5.55112e-17
289 1 206.179 10.5912 -5.55112e-17
290 1 187.98 93.2904 -5.55112e-17
291 1 138.966 197.984 -5.55112e-17
292 2 92.8125 153.029 -5.55112e-17
293 2 76.5361 69.1107 -5.55112e-17
294 1 82.7935 35.9026 -5.55112e-17
295 1 17.7897 134.09 -5.55112e-17
296 1 5.78915 10.1689 -5.55112e-17
297 1 186.268 138.051 -5.55112e-17
298 1 25.7901 105.695 -5.55112e-17
299 1 149.831 55.1828 -5.55112e-17
300 2 40.3802 4.51963 -5.55112e-17
301 1 27.5268 115.454 -5.55112e-17
302 1 18.1993 28.2103 -5.55112e-17
303 2 160.784 178.799 -5.55112e-17
304 2 103.498 103.975 -5.55112e-17
305 1 159.209 57.8538 -5.55112e-17
306 1 68.8346 106.077 -5.55112e-17
307 1 205.798 136.173 -5.55112e-17
308 1 98.4884 178.738 -5.55112e-17
309 2 64.2371 104.449 -5.55112e-17
310 1 74.5906 34.3855 -5.55112e-17
311 1 13.3882 191.451 -5.55112e-17
312 1 48.9859 130.61 -5.55112e-17
313 2 187.386 218.263 -5.55112e-17
314 1 0.716525 17.3552 -5.55112e-17
315 1 4.3221 86.2814 -5.55112e-17
316 1 195.025 38.5384 -5.55112e-17
317 1 45.7859 173.224 -5.55112e-17
318 1 90.5189 187.254 -5.55112e-17
319 1 196.287 65.4603 -5.55112e-17
320 1 5.89728 80.9336 -5.55112e-17
321 1 176.974 156.927 -5.55112e-17
322 1 146.468 121.808 -5.55112e-17
323 1 192.282 7.60296 -5.55112e-17
324 1 194.596 111.096 -5.55112e-17
325 1 87.4581 135.304 -5.55112e-17
326 1 125.875 88.146 -5.55112e-17
327 2 93.0001 182.424 -5.55112e-17
328 1 83.9814 107.249 -5.55112e-17
329 2 55.1727 170.614 -5.55112e-17
330 1 201.148 50.944 -5.55112e-17
331 1 212.558 205.385 -5.55112e-17
332 2 23.172 133.449 -5.55112e-17
333 1 116.034 37.8907 -5.55112e-17
334 1 159.44 84.9952 -5.55112e-17
335 1 40.0598 214.416 -5.55112e-17
336 1 34.2164 23.728 -5.55112e-17
337 1 43.0593 97.2337 -5.55112e-17
338 1 184.013 193.922 -5.55112e-17
339 1 155.937 65.8136 -5.55112e-17
340 1 143.974 113.889 -5.55112e-17
341 1 109.122 14.7016 -5.55112e-17
342 1 97.0095 166.697 -5.55112e-17
343 1 63.6626 25.1824 -5.55112e-17
344 1 151.938 202.689 -5.55112e-17
345 1 201.401 59.3851 -5.55112e-17
346 1 137.586 69.6525 -5.55112e-17
347 1 168.229 210.499 -5.55112e-17
348 1 35.4796 1.1878 -5.55112e-17
349 1 79.4205 145.289 -5.55112e-17
350 2 60.7094 41.3856 -5.55112e-17
351 1 169.805 215.04 -5.55112e-17
352 1 135.384 4.86577 -5.55112e-17
353 1 204.563 213.968 -5.55112e-17
354 1 66.8659 48.877 -5.55112e-17
355 1 75.0671 177.239 -5.55112e-17
356 1 82.3295 179.746 -5.55112e-17
357 1 164.763 28.0647 -5.55112e-17
358 1 13.3191 35.1037 -5.55112e-17
359 1 101.481 28.0281 -5.55112e-17
360 1 155.963 79.9133 -5.55112e-17
361 1 128.706 77.7825 -5.55112e-17
362 1 177.672 218.592 -5.55112e-17
363 1 163.331 35.8856 -5.55112e-17
364 2 81.1479 50.2634 -5.55112e-17
365 1 97.8371 8.31977 -5.55112e-17
366 1 105.655 15.8322 -5.55112e-17
367 1 123.242 16.7158 -5.55112e-17
368 1 28.3888 3.61299 -5.55112e-17
369 2 19.2202 45.9059 -5.55112e-17
370 1 99.9248 171.719 -5.55112e-17
371 1 61.468 15.7434 -5.55112e-17
372 2 95.762 128.951 -5.55112e-17
373 2 86.4655 216.79 -5.55112e-17
374 1 129.99 40.8091 -5.55112e-17
375 1 96.6329 210.845 -5.55112e-17
376 1 18.7539 177.288 -5.55112e-17
377 1 57.1274 158.525 -5.55112e-17
378 1 84.1585 88.0745 -5.55112e-17
379 1 213.561 31.4578 -5.55112e-17
380 1 147.412 160.472 -5.55112e-17
381 1 117.956 159.4 -5.55112e-17
382 1 98.7328 34.4032 -5.55112e-17
383 1 60.4378 141.566 -5.55112e-17
384 1 100.396 49.8475 -5.55112e-17
385 1 106.577 114.866 -5.55112e-17
386 2 121.886 29.1429 -5.55112e-17
387 1 203.828 147.811 -5.55112e-17
388 1 214.719 95.0026 -5.55112e-17
389 1 131.457 44.8313 -5.55112e-17
390 2 205.853 142.734 -5.55112e-17
391 2 112.597 174.626 -5.55112e-17
392 1 119.739 192.239 -5.55112e-17
393 1 8.84764 51.1897 -5.55112e-17
394 1 174.914 67.8236 -5.55112e-17
395 1 82.8005 57.8959 -5.55112e-17
396 1 14.5081 153.678 -5.55112e-17
397 1 4.31124 25.974 -5.55112e-17
398 1 119.223 19.4205 -5.55112e-17
399 1 126.783 12.6592 -5.55112e-17
400 1 122.359 128.963 -5.55112e-17
401 1 20.2954 131.925 -5.55112e-17
402 2 74.3674 180.237 -5.55112e-17
403 1 177.304 110.971 -5.55112e-17
404 1 109.628 164.742 -5.55112e-17
405 1 112.648 171.291 -5.55112e-17
406 1 200.111 27.4607 -5.55112e-17
407 2 131.862 111.534 -5.55112e-17
408 1 116.834 204.319 -5.55112e-17
409 1 78.9294 37.3468 -5.55112e-17
410 1 45.3452 18.1209 -5.55112e-17
411 1 165.611 118.092 -5.55112e-17
412 1 97.0367 25.5943 -5.55112e-17
413 1 7.93034 67.026 -5.55112e-17
414 1 205.058 216.631 -5.55112e-17
415 1 181.183 33.4848 -5.55112e-17
416 1 43.9617 168.743 -5.55112e-17
417 1 33.578 143.143 -5.55112e-17
418 2 98.8482 52.6985 -5.55112e-17
419 1 207.698 157.23 -5.55112e-17
420 2 21.5922 50.7165 -5.55112e-17
421 1 117.496 105.928 -5.55112e-17
422 1 85.1428 83.1683 -5.55112e-17
423 2 158.257 95.7934 -5.55112e-17
424 1 159.202 131.068 -5.55112e-17
425 1 31.3253 160.93 -5.55112e-17
426 1 132.618 69.6777 -5.55112e-17
427 1 52.0146 89.1409 -5.55112e-17
428 1 70.3002 185.953 -5.55112e-17
429 1 127.692 28.2881 -5.55112e-17
430 1 143.171 165.897 -5.55112e-17
431 1 172.452 170.48 -5.55112e-17
432 1 115.269 145.233 -5.55112e-17
433 1 76.4994 215.36 -5.55112e-17
434 1 190.95 86.6753 -5.55112e-17
435 1 23.721 188.853 -5.55112e-17
436 1 190.093 44.6277 -5.55112e-17
437 1 186.548 185.187 -5.55112e-17
438 2 18.6033 11.464 -5.55112e-17
439 1 168.338 85.3057 -5.55112e-17
440 1 51.3487 130.312 -5.55112e-17
441 1 72.5189 203.698 -5.55112e-17
442 1 34.9966 84.9581 -5.55112e-17
443 1 114.674 209.68 -5.55112e-17
444 1 3.44532 55.851 -5.55112e-17
445 1 203.161 145.631 -5.55112e-17
446 1 37.3434 203.214 -5.55112e-17
447 1 192.704 193.966 -5.55112e-17
448 1 87.2766 2.74877 -5.55112e-17
449 1 111.583 28.9634 -5.55112e-17
450 1 186.474 37.5833 -5.55112e-17
451 1 114.443 138.597 -5.55112e-17
452 1 157.621 133.38 -5.55112e-17
453 1 211.992 17.3965 -5.55112e-17
454 1 133.809 100.128 -5.55112e-17
455 1 37.1774 28.6617 -5.55112e-17
456 1 94.2072 104.588 -5.55112e-17
457 1 207.825 140.481 -5.55112e-17
458 1 186.274 97.3996 -5.55112e-17
459 1 10.6769 27.5749 -5.55112e-17
460 1 216.499 179.845 -5.55112e-17
461 1 194.109 32.7117 -5.55112e-17
462 1 22.3849 216.801 -5.55112e-17
463 1 153.842 100.823 -5.55112e-17
464 1 151.512 42.7385 -5.55112e-17
465 1 71.99 148.035 -5.55112e-17
466 1 162.393 181.184 -5.55112e-17
467 1 151.685 99.7334 -5.55112e-17
468 1 217.293 93.5984 -5.55112e-17
469 1 100.503 174.248 -5.55112e-17
470 1 68.9802 125.532 -5.55112e-17
471 1 43.814 191.744 -5.55112e-17
472 1 49.3017 15.12 -5.55112e-17
473 1 128.3 2.5879 -5.55112e-17
474 1 119.128 2.66924 -5.55112e-17
475 1 124.269 106.387 -5.55112e-17
476 2 196.735 156.067 -5.55112e-17
477 1 157.898 11.2248 -5.55112e-17
478 1 20.4461 57.664 -5.55112e-17
479 1 215.482 189.732 -5.55112e-17
480 1 124.403 194.336 -5.55112e-17
481 1 211.689 207.605 -5.55112e-17
482 1 210.315 82.3971 -5.55112e-17
483 1 38.1115 164.411 -5.55112e-17
484 2 38.4505 161.347 -5.55112e-17
485 1 82.6246 112.517 -5.55112e-17
486 1 201.591 56.2468 -5.55112e-17
487 1 204.557 113.627 -5.55112e-17
488 1 54.0424 14.9768 -5.55112e-17
489 1 60.0061 120.988 -5.55112e-17
490 1 91.9101 94.2761 -5.55112e-17
491 1 160.977 65.2382 -5.55112e-17
492 1 103.84 91.2943 -5.55112e-17
493 1 55.9793 173.76 -5.55112e-17
494 1 104.18 39.4653 -5.55112e-17
495 1 6.67013 7.21492 -5.55112e-17
496 2 155.898 125.642 -5.55112e-17
497 1 193.914 118.598 -5.55112e-17
498 1 162.955 13.4015 -5.55112e-17
499 2 12.6526 55.4606 -5.55112e-17
500 1 168.591 87.9283 -5.55112e-17
501 2 192.523 37.5286 -5.55112e-17
502 2 154.13 217.639 -5.55112e-17
503 1 218.13 133.62 -5.55112e-17
504 1 39.8694 200.438 -5.55112e-17
505 1 15.7115 88.1746 -5.55112e-17
506 1 134.166 209.98 -5.55112e-17
507 1 101.983 82.417 -5.55112e-17
508 1 83.0131 165.389 -5.55112e-17
509 2 179.372 210.824 -5.55112e-17
510 2 56.0553 85.7531 -5.55112e-17
511 1 19.5275 48.6809 -5.55112e-17
512 2 122.024 41.5082 -5.55112e-17
513 1 176.608 135.516 -5.55112e-17
514 1 159.206 143.193 -5.55112e-17
515 1 101.901 140.039 -5.55112e-17
516 1 42.4686 127.272 -5.55112e-17
517 1 78.3416 213.858 -5.55112e-17
518 2 7.85634 72.8964 -5.55112e-17
519 1 151.757 8.42651 -5.55112e-17
520 2 59.2506 91.5718 -5.55112e-17
521 1 97.8212 142.678 -5.55112e-17
522 1 82.2142 63.4699 -5.55112e-17
523 1 121.777 155.582 -5.55112e-17
524 1 3.51875 142.487 -5.55112e-17
525 1 102.368 185.009 -5.55112e-17
526 1 81.1572 110.484 -5.55112e-17
527 1 156.912 32.9291 -5.55112e-17
528 1 13.6003 128.37 -5.55112e-17
529 1 76.3202 108.845 -5.55112e-17
530 1 134.468 21.7585 -5.55112e-17
531 1 95.8185 170.718 -5.55112e-17
532 1 27.2966 86.5695 -5.55112e-17
533 1 32.296 177.608 -5.55112e-17
534 1 206.174 53.0027 -5.55112e-17
535 1 1.94282 5.29706 -5.55112e-17
536 1 20.3563 6.44351 -5.55112e-17
537 1 14.541 95.0923 -5.55112e-17
538 1 7.06769 30.9663 -5.55112e-17
539 1 185.04 49.0187 -5.55112e-17
540 1 187.849 10.0541 -5.55112e-17
541 1 188.124 187.253 -5.55112e-17
542 1 32.529 140.834 -5.55112e-17
543 1 204.309 181.04 -5.55112e-17
544 1 41.6623 115.155 -5.55112e-17
545 1 35.1082 212.047 -5.55112e-17
546 1 181.305 126.194 -5.55112e-17
547 1 107.978 1.61767 -5.55112e-17
548 1 121.103 141.938 -5.55112e-17
549 1 25.6388 65.2028 -5.55112e-17
550 2 71.178 206.503 -5.55112e-17
551 2 75.2582 199.006 -5.55112e-17
552 2 151.563 17.9863 -5.55112e-17
553 1 95.3033 188.459 -5.55112e-17
554 1 118.615 86.9492 -5.55112e-17
555 2 160.905 15.6273 -5.55112e-17
556 1 62.5943 205.946 -5.55112e-17
557 1 163.258 151.433 -5.55112e-17
558 1 169.376 16.7953 -5.55112e-17
559 1 188.438 196.151 -5.55112e-17
560 1 188.967 155.037 -5.55112e-17
561 1 158.899 126.194 -5.55112e-17
562 1 106.466 175.106 -5.55112e-17
563 2 35.302 217.446 -5.55112e-17
564 1 96.0202 42.0198 -5.55112e-17
565 1 20.1801 134.129 -5.55112e-17
566 1 145.718 199.381 -5.55112e-17
567 1 167.285 214.532 -5.55112e-17
568 1 198.836 75.5943 -5.55112e-17
569 1 174.892 104.558 -5.55112e-17
570 1 63.6531 196.327 -5.55112e-17
571 1 17.5154 77.4363 -5.55112e-17
572 1 81.3054 128.522 -5.55112e-17
573 1 214.8 59.6187 -5.55112e-17
574 1 111.502 150.429 -5.55112e-17
575 1 33.7665 68.4528 -5.55112e-17
576 1 9.18404 146.915 -5.55112e-17
577 1 7.51397 44.6101 -5.55112e-17
578 1 142.642 38.8695 -5.55112e-17
579 1 85.9042 179.81 -5.55112e-17
580 1 169.172 3.11392 -5.55112e-17
581 1 119.907 109.73 -5.55112e-17
582 1 86.6535 208.722 -5.55112e-17
583 1 96.008 51.8961 -5.55112e-17
584 2 131.267 64.5709 -5.55112e-17
585 1 36.1462 99.7562 -5.55112e-17
586 1 77.365 193.23 -5.55112e-17
587 1 18.0013 108.59 -5.55112e-17
588 1 146.891 116.938 -5.55112e-17
589 1 201.129 197.331 -5.55112e-17
590 1 186.082 63.203 -5.55112e-17
591 1 201.156 14.9301 -5.55112e-17
592 1 60.8858 13.2449 -5.55112e-17
593 1 85.9981 10.2383 -5.55112e-17
594 1 166.999 204.771 -5.55112e-17
595 1 62.3795 168.536 -5.55112e-17
596 1 134.028 9.70394 -5.55112e-17
597 2 125.147 3.1006 -5.55112e-17
598 1 43.8177 5.1979 -5.55112e-17
599 1 185.908 134.327 -5.55112e-17
600 1 138.49 36.1033 -5.55112e-17
601 1 85.1124 5.74122 -5.55112e-17
602 1 0.380545 154.59 -5.55112e-17
603 1 26.0528 67.886 -5.55112e-17
604 1 38.7255 26.1723 -5.55112e-17
605 2 144.84 21.7696 -5.55112e-17
606 1 184.689 44.0226 -5.55112e-17
607 2 71.0373 174.581 -5.55112e-17
608 1 106.456 208.072 -5.55112e-17
609 1 128.753 56.8358 -5.55112e-17
610 1 200.428 61.9132 -5.55112e-17
611 1 69.807 133.19 -5.55112e-17
612 1 66.9524 38.7527 -5.55112e-17
613 1 139.639 214.686 -5.55112e-17
614 2 154.268 58.102 -5.55112e-17
615 1 2.18928 74.0764 -5.55112e-17
616 1 21.5089 19.4682 -5.55112e-17
617 1 192.254 59.2231 -5.55112e-17
618 1 170.121 73.4662 -5.55112e-17
619 1 69.208 47.8267 -5.55112e-17
620 1 178.691 95.4996 -5.55112e-17
621 1 117.793 52.4275 -5.55112e-17
622 1 24.8093 16.059 -5.55112e-17
623 1 147.804 6.82272 -5.55112e-17
624 1 133.308 66.9492 -5.55112e-17
625 1 35.5971 196.526 -5.55112e-17
626 1 124.53 12.6574 -5.55112e-17
627 1 113.782 185.522 -5.55112e-17
628 1 197.502 200.586 -5.55112e-17
629 1 171.262 131.648 -5.55112e-17
630 2 94.2711 165.793 -5.55112e-17
631 1 42.4665 207.761 -5.55112e-17
632 1 172.714 208.76 -5.55112e-17
633 1 23.0029 118.005 -5.55112e-17
634 1 35.0382 62.434 -5.55112e-17
635 1 3.33668 207.976 -5.55112e-17
636 1 134.114 92.4006 -5.55112e-17
637 1 13.5069 120.635 -5.55112e-17
638 1 126.094 152.572 -5.55112e-17
639 2 80.4909 42.4581 -5.55112e-17
640 1 26.0409 70.417 -5.55112e-17
641 1 165.915 7.50059 -5.55112e-17
642 1 36.3812 170.86 -5.55112e-17
643 2 183.45 96.608 -5.55112e-17
644 1 31.4109 79.0276 -5.55112e-17
645 1 6.78532 164.915 -5.55112e-17
646 2 208.073 194.172 -5.55112e-17
647 1 72.9793 81.9134 -5.55112e-17
648 1 47.1699 125.612 -5.55112e-17
649 2 133.769 30.3868 -5.55112e-17
650 1 3.77641 190.572 -5.55112e-17
651 1 210.601 46.8756 -5.55112e-17
652 1 213.171 125.012 -5.55112e-17
653 1 151.345 80.575 -5.55112e-17
654 1 9.00695 32.4784 -5.55112e-17
655 2 218.17 206.004 -5.55112e-17
656 1 139.645 5.54817 -5.55112e-17
657 2 91.8202 25.0404 -5.55112e-17
658 1 15.986 36.2396 -5.55112e-17
659 2 167.91 145.275 -5.55112e-17
660 1 107.389 27.2667 -5.55112e-17
661 1 49.1854 43.5955 -5.55112e-17
662 1 212.342 70.7541 -5.55112e-17
663 1 55.9046 3.13907 -5.55112e-17
664 1 24.2891 72.2466 -5.55112e-17
665 1 180.031 39.8279 -5.55112e-17
666 2 46.8089 120.569 -5.55112e-17
667 1 111.294 100.642 -5.55112e-17
668 2 97.1934 87.8087 -5.55112e-17
669 1 216.924 174.221 -5.55112e-17
670 1 51.0843 208.639 -5.55112e-17
671 2 99.7798 24.497 -5.55112e-17
672 1 26.1255 148.406 -5.55112e-17
673 1 176.893 123.079 -5.55112e-17
674 1 49.3907 214.236 -5.55112e-17
675 1 163.847 162.54 -5.55112e-17
676 1 17.7219 16.5415 -5.55112e-17
677 1 17.7951 61.5673 -5.55112e-17
678 1 203.045 72.7736 -5.55112e-17
679 2 42.5877 22.989 -5.55112e-17
680 1 43.0368 50.044 -5.55112e-17
681 2 17.7017 150.247 -5.55112e-17
682 1 158.207 78.0503 -5.55112e-17
683 1 211.085 33.9681 -5.55112e-17
684 1 38.58 139.066 -5.55112e-17
685 1 120.099 13.3305 -5.55112e-17
686 1 60.505 190.972 -5.55112e-17
687 1 159.215 30.2765 -5.55112e-17
688 1 45.3685 82.1061 -5.55112e-17
689 2 30.0361 86.3322 -5.55112e-17
690 1 204.525 121.108 -5.55112e-17
691 1 32.4985 38.5902 -5.55112e-17
692 1 80.7974 199.776 -5.55112e-17
693 1 29.489 80.6444 -5.55112e-17
694 1 90.3869 96.2306 -5.55112e-17
695 1 138.993 143.62 -5.55112e-17
696 1 68.619 138.01 -5.55112e-17
697 1 134.921 38.0752 -5.55112e-17
698 1 36.4819 67.9548 -5.55112e-17
699 1 154.551 115.997 -5.55112e-17
700 1 129.532 105.332 -5.55112e-17
701 1 184.625 18.9419 -5.55112e-17
702 1 42.7039 197.296 -5.55112e-17
703 2 53.5143 29.8292 -5.55112e-17
704 1 132.019 170.86 -5.55112e-17
705 2 157.24 150.945 -5.55112e-17
706 1 52.2539 19.6423 -5.55112e-17
707 1 12.392 178.499 -5.55112e-17
708 1 187.711 120.812 -5.55112e-17
709 1 54.7231 88.7771 -5.55112e-17
710 1 150.806 90.9392 -5.55112e-17
711 1 24.3788 22.7541 -5.55112e-17
712 1 76.4176 141.362 -5.55112e-17
713 1 118.675 64.0493 -5.55112e-17
714 1 26.4562 42.5058 -5.55112e-17
715 1 48.9383 152.302 -5.55112e-17
716 1 59.086 2.33555 -5.55112e-17
717 1 84.6532 140.194 -5.55112e-17
718 1 162.41 136.206 -5.55112e-17
719 2 68.407 128.525 -5.55112e-17
720 1 72.3842 112.421 -5.55112e-17
721 1 106.307 156.427 -5.55112e-17
722 1 179.375 189.058 -5.55112e-17
723 2 83.1111 72.8684 -5.55112e-17
724 1 213.432 197.217 -5.55112e-17
725 1 193.784 65.316 -5.55112e-17
726 1 66.9686 200.029 -5.55112e-17
727 1 136.649 43.1269 -5.55112e-17
728 2 211.358 176.967 -5.55112e-17
729 1 149.728 137.861 -5.55112e-17
730 1 143.225 26.5667 -5.55112e-17
731 1 108.401 24.6038 -5.55112e-17
732 1 35.0355 145.363 -5.55112e-17
733 1 162.231 205.182 -5.55112e-17
734 1 37.6026 97.9996 -5.55112e-17
735 1 203.728 52.0659 -5.55112e-17
736 2 197.231 34.3895 -5.55112e-17
737 1 39.5429 83.614 -5.55112e-17
738 1 201.423 131.196 -5.55112e-17
739 1 83.2113 17.3725 -5.55112e-17
740 1 73.7054 63.233 -5.55112e-17
741 2 184.088 147.042 -5.55112e-17
742 1 13.179 13.7514 -5.55112e-17
743 1 170.337 65.7136 -5.55112e-17
744 2 53.2985 66.8376 -5.55112e-17
745 1 191.359 27.9201 -5.55112e-17
746 1 203.122 143.091 -5.55112e-17
747 2 172.302 77.4867 -5.55112e-17
748 1 78.3709 10.825 -5.55112e-17
749 1 24.0467 55.6424 -5.55112e-17
750 1 8.31653 41.0141 -5.55112e-17
751 1 28.8211 70.3864 -5.55112e-17
752 1 57.6885 55.8872 -5.55112e-17
753 1 155.594 213.501 -5.55112e-17
754 1 13.1642 80.828 -5.55112e-17
755 1 140.314 200.072 -5.55112e-17
756 2 114.843 158.146 -5.55112e-17
757 1 133.6 205.764 -5.55112e-17
758 1 136.506 155.117 -5.55112e-17
759 1 101.556 59.2899 -5.55112e-17
760 1 204.769 30.6248 -5.55112e-17
761 1 116.081 23.388 -5.55112e-17
762 1 184.516 99.2204 -5.55112e-17
763 1 133.009 59.6603 -5.55112e-17
764 2 123.866 119.429 -5.55112e-17
765 1 105.191 41.5798 -5.55112e-17
766 1 54.9581 80.847 -5.55112e-17
767 1 204.724 191.718 -5.55112e-17
768 1 92.0975 73.3243 -5.55112e-17
769 1 99.0466 27.084 -5.55112e-17
770 2 94.5494 202.605 -5.55112e-17
771 1 60.0274 97.7197 -5.55112e-17
772 1 156.797 59.7309 -5.55112e-17
773 1 96.1506 93.0025 -5.55112e-17
774 1 113.463 30.8771 -5.55112e-17
775 1 123.376 64.8225 -5.55112e-17
776 1 198.776 196.351 -5.55112e-17
777 1 193.328 98.7602 -5.55112e-17
778 1 161.614 86.1576 -5.55112e-17
779 1 112.366 25.9662 -5.55112e-17
780 1 209.389 186.834 -5.55112e-17
781 1 58.0937 175.107 -5.55112e-17
782 1 145.109 24.7909 -5.55112e-17
783 1 67.1184 7.99278 -5.55112e-17
784 2 6.202 28.0116 -5.55112e-17
785 1 44.5825 125.046 -5.55112e-17
786 1 166.786 157.317 -5.55112e-17
787 1 71.1991 58.5809 -5.55112e-17
788 1 76.1041 162.879 -5.55112e-17
789 2 117.3 108.878 -5.55112e-17
790 1 172.439 74.2555 -5.55112e-17
791 2 30.3429 158.275 -5.55112e-17
792 2 52.4952 61.1546 -5.55112e-17
793 2 113.771 89.9361 -5.55112e-17
794 1 141.808 89.571 -5.55112e-17
795 1 126.758 135.196 -5.55112e-17
796 1 44.1092 122.342 -5.55112e-17
797 1 48.1001 117.964 -5.55112e-17
798 2 146.835 77.3999 -5.55112e-17
799 2 142.388 173.007 -5.55112e-17
800 2 95.2811 115.611 -5.55112e-17
801 1 8.59366 38.1457 -5.55112e-17
802 1 217.407 141.151 -5.55112e-17
803 1 149.797 40.7341 -5.55112e-17
804 2 10.8566 185.387 -5.55112e-17
805 1 103.829 84.4629 -5.55112e-17
806 1 193.872 156.52 -5.55112e-17
807 2 0.236378 172.234 -5.55112e-17
808 1 127.683 200.529 -5.55112e-17
809 2 137.509 124.439 -5.55112e-17
810 1 74.5017 31.5696 -5.55112e-17
811 1 59.5967 61.7282 -5.55112e-17
812 1 30.1176 204.371 -5.55112e-17
813 2 22.0755 136.552 -5.55112e-17
814 1 45.5945 166.649 -5.55112e-17
815 1 137.036 33.8783 -5.55112e-17
816 1 157.531 54.9386 -5.55112e-17
817 1 13.5666 31.8411 -5.55112e-17
818 1 76.6914 58.8703 -5.55112e-17
819 1 166.351 202.494 -5.55112e-17
820 1 35.4592 184.098 -5.55112e-17
821 1 146.908 155.687 -5.55112e-17
822 2 8.46113 103.663 -5.55112e-17
823 2 202.411 102.31 -5.55112e-17
824 1 55.6241 138.155 -5.55112e-17
825 1 141.069 46.7442 -5.55112e-17
826 1 214.576 71.8819 -5.55112e-17
827 1 174.436 147.314 -5.55112e-17
828 1 200.849 71.9996 -5.55112e-17
829 1 9.35561 21.0796 -5.55112e-17
830 1 86.9472 33.1743 -5.55112e-17
831 1 183.193 212.988 -5.55112e-17
832 1 9.24934 116.598 -5.55112e-17
833 1 79.6681 99.6051 -5.55112e-17
834 1 117.712 25.1175 -5.55112e-17
835 1 55.9326 71.2511 -5.55112e-17
836 1 76.7875 196.565 -5.55112e-17
837 1 61.4596 18.18 -5.55112e-17
838 1 148.795 89.6495 -5.55112e-17
839 2 188.082 132.219 -5.55112e-17
840 1 111.403 13.8188 -5.55112e-17
841 2 140.987 57.8664 -5.55112e-17
842 1 139.388 82.7221 -5.55112e-17
843 2 110.422 6.41754 -5.55112e-17
844 1 161.997 164.256 -5.55112e-17
845 1 121.535 197.799 -5.55112e-17
846 1 57.9278 192.425 -5.55112e-17
847 1 94.3513 58.7283 -5.55112e-17
848 1 180.899 16.8799 -5.55112e-17
849 1 156.402 142.337 -5.55112e-17
850 1 16.9984 143.181 -5.55112e-17
851 1 11.2349 129.284 -5.55112e-17
852 1 172.918 103.227 -5.55112e-17
853 1 135.551 140.592 -5.55112e-17
854 1 68.4974 63.532 -5.55112e-17
855 1 127.045 122.936 -5.55112e-17
856 1 18.3565 14.1876 -5.55112e-17