ITEM: TIMESTEP
0
ITEM: NUMBER OF ATOMS
7200
ITEM: BOX BOUNDS xy xz yz pp pp pp
0.0000000000000000e+00 2.1900000000000000e+02 0.0000000000000000e+00
0.0000000000000000e+00 2.1900000000000000e+02 0.0000000000000000e+00
-3.6499999999999999e-01 3.6499999999999999e-01 0.0000000000000000e+00
ITEM: ATOMS id type x y z
1 1 123.945 44.866 -5.55112e-17
2 1 147.36 23.6673 -5.55112e-17
3 1 62.1042 10.8304 -5.55112e-17
4 1 90.3779 13.3969 -5.55112e-17
5 1 40.5665 117.888 -5.55112e-17
6 1 174.867 176.027 -5.55112e-17
7 1 185.474 29.5654 -5.55112e-17
8 2 118.778 32.2046 -5.55112e-17
9 1 205.765 137.207 -5.55112e-17
10 2 103.211 154.794 -5.55112e-17
11 1 43.8261 14.8316 -5.55112e-17
12 1 101.626 32.7887 -5.55112e-17
13 2 43.9888 157.175 -5.55112e-17
14 1 178.136 84.232 -5.55112e-17
15 1 100.313 141.668 -5.55112e-17
16 2 207.952 139.258 -5.55112e-17
17 1 151.883 37.1796 -5.55112e-17
18 2 5.44938 28.5973 -5.55112e-17
19 1 134.051 123.248 -5.55112e-17
20 1 207.465 161.957 -5.55112e-17
21 1 197.579 156.558 -5.55112e-17
22 2 11.4813 150.064 -5.55112e-17
23 2 41.47 6.84615 -5.55112e-17
24 1 32.1102 39.8859 -5.55112e-17
25 1 35.7978 140.802 -5.55112e-17
26 2 200.669 16.7477 -5.55112e-17
27 1 105.429 98.1948 -5.55112e-17
28 2 107.894 177.818 -5.55112e-17
29 1 43.9482 5.37522 -5.55112e-17
30 1 15.597 100.065 -5.55112e-17
31 1 20.2412 82.663 -5.55112e-17
32 1 123.663 97.9068 -5.55112e-17
33 1 71.9094 78.968 -5.55112e-17
34 1 131 163.258 -5.55112e-17
35 1 145.461 43.501 -5.55112e-17
36 1 37.2011 17.7964 -5.55112e-17
37 2 58.7954 122.013 -5.55112e-17
38 1 155.573 182.173 -5.55112e-17
39 1 193.575 158.817 -5.55112e-17
40 1 77.708 10.0466 -5.55112e-17
41 1 111.119 127.654 -5.55112e-17
42 1 95.7883 13.6519 -5.55112e-17
43 1 147.317 47.8721 -5.55112e-17
44 1 198.153 80.4927 -5.55112e-17
45 1 9.84348 156.992 -5.55112e-17
46 1 80.5701 183.783 -5.55112e-17
47 1 204.164 19.1219 -5.55112e-17
48 2 93.8248 30.5979 -5.55112e-17
49 1 159.771 150.857 -5.55112e-17
50 1 163.565 16.1858 -5.55112e-17
51 1 6.86897 52.828 -5.55112e-17
52 1 202.754 206.529 -5.55112e-17
53 1 187.214 173.669 -5.55112e-17
54 1 181.621 195.443 -5.55112e-17
55 1 68.2379 156.79 -5.55112e-17
56 1 138.99 204.725 -5.55112e-17
57 2 201.533 130.8 -5.55112e-17
58 1 140.486 60.3743 -5.55112e-17
59 1 155.846 93.0705 -5.55112e-17
60 2 85.2915 47.8174 -5.55112e-17
61 2 211.139 24.7554 -5.55112e-17
62 1 191.407 42.2819 -5.55112e-17
63 1 63.6334 148.036 -5.55112e-17
64 1 152.51 53.0707 -5.55112e-17
65 1 183.385 15.4821 -5.55112e-17
66 1 18.3077 127.286 -5.55112e-17
67 1 199.649 182.71 -5.55112e-17
68 1 171.307 69.7233 -5.55112e-17
69 1 22.9467 78.7698 -5.55112e-17
70 1 140.044 17.1013 -5.55112e-17
71 1 193.984 154.328 -5.55112e-17
72 1 124.981 28.6668 -5.55112e-17
73 1 94.5453 11.7096 -5.55112e-17
74 1 37.1632 123.535 -5.55112e-17
75 2 105.767 20.9976 -5.55112e-17
76 1 174.956 110.356 -5.55112e-17
77 1 107.351 57.1642 -5.55112e-17
78 1 210.719 154.638 -5.55112e-17
79 2 188.956 147.496 -5.55112e-17
80 1 204.35 131.744 -5.55112e-17
81 1 127.974 44.3862 -5.55112e-17
82 1 209.419 7.16511 -5.55112e-17
83 2 134.691 20.4713 -5.55112e-17
84 1 33.5266 90.2811 -5.55112e-17
85 1 188.086 191.982 -5.55112e-17
86 1 204.489 92.1796 -5.55112e-17
87 1 181.045 170.778 -5.55112e-17
88 1 44.3829 147.026 -5.55112e-17
89 2 136.556 166.623 -5.55112e-17
90 2 82.5287 112.585 -5.55112e-17
91 1 107.568 93.7872 -5.55112e-17
92 2 31.1941 152.15 -5.55112e-17
93 1 11.3705 106.862 -5.55112e-17
94 2 158.835 55.5191 -5.55112e-17
95 1 15.0834 31.2551 -5.55112e-17
96 1 185.076 150.418 -5.55112e-17
97 1 114.357 132.185 -5.55112e-17
98 1 144.509 58.3606 -5.55112e-17
99 1 161.545 39.8707 -5.55112e-17
100 1 4.79427 33.046 -5.55112e-17
101 1 89.9051 95.7262 -5.55112e-17
102 1 131.32 165.841 -5.55112e-17
103 1 139.503 114.885 -5.55112e-17
104 1 146.747 128.407 -5.55112e-17
105 1 15.9757 90.0147 -5.55112e-17
106 1 134.496 153.973 -5.55112e-17
107 2 149.762 149.752 -5.55112e-17
108 1 6.02284 80.7726 -5.55112e-17
109 1 132.934 44.2656 -5.55112e-17
110 1 30.8769 59.158 -5.55112e-17
111 1 140.122 162.429 -5.55112e-17
112 1 78.8029 170.31 -5.55112e-17
113 1 17.6808 149.159 -5.55112e-17
114 1 153.506 148.664 -5.55112e-17
115 1 83.5354 39.2398 -5.55112e-17
116 2 62.9318 51.7399 -5.55112e-17
117 1 63.9019 197.816 -5.55112e-17
118 1 0.821846 121.645 -5.55112e-17
119 2 71.1854 97.5478 -5.55112e-17
120 1 71.9481 14.5324 -5.55112e-17
121 1 141.378 190.912 -5.55112e-17
122 1 142.085 218.25 -5.55112e-17
123 1 218.456 191.373 -5.55112e-17
124 1 56.8425 192.512 -5.55112e-17
125 1 147.218 19.8001 -5.55112e-17
126 1 78.2081 111.872 -5.55112e-17
127 1 157.07 98.2868 -5.55112e-17
128 1 17.7692 73.2651 -5.55112e-17
129 1 124.752 180.671 -5.55112e-17
130 1 100.457 70.3706 -5.55112e-17
131 1 179.149 185.67 -5.55112e-17
132 2 152.378 88.9801 -5.55112e-17
133 1 173.431 10.8473 -5.55112e-17
134 1 175.66 96.007 -5.55112e-17
135 1 65.59 180.248 -5.55112e-17
136 1 156.283 45.1239 -5.55112e-17
137 1 189.054 96.7908 -5.55112e-17
138 1 143.979 216.667 -5.55112e-17
139 1 75.637 8.20763 -5.55112e-17
140 2 197.557 90.2894 -5.55112e-17
141 1 160.44 217.075 -5.55112e-17
142 2 205.424 205.651 -5.55112e-17
143 1 198.739 75.8095 -5.55112e-17
144 2 64.2562 77.835 -5.55112e-17
145 1 198.478 189.535 -5.55112e-17
146 1 173.856 55.301 -5.55112e-17
147 1 66.3245 160.466 -5.55112e-17
148 1 10.9199 33.6829 -5.55112e-17
149 1 85.0897 108.304 -5.55112e-17
150 1 104.148 145.732 -5.55112e-17
151 1 67.641 213.626 -5.55112e-17
152 1 198.544 55.7304 -5.55112e-17
153 2 204.257 200.998 -5.55112e-17
154 1 202.098 4.15105 -5.55112e-17
155 1 192.199 199.789 -5.55112e-17
156 2 48.4503 190.122 -5.55112e-17
157 1 89.2653 139.334 -5.55112e-17
158 1 33.9324 155.816 -5.55112e-17
159 1 173.171 198.221 -5.55112e-17
160 1 69.4172 95.4637 -5.55112e-17
161 1 132.761 74.0472 -5.55112e-17
162 1 192.154 22.1478 -5.55112e-17
163 1 198.149 11.8074 -5.55112e-17
164 1 26.8745 177.533 -5.55112e-17
165 1 96.6844 102.785 -5.55112e-17
166 2 201.131 177.733 -5.55112e-17
167 1 206.329 117.878 -5.55112e-17
168 1 164.948 29.9553 -5.55112e-17
169 1 25.8145 23.0643 -5.55112e-17
170 1 141.811 116.066 -5.55112e-17
171 1 1.79826 87.4615 -5.55112e-17
172 1 157.024 202.677 -5.55112e-17
173 1 159.159 71.6473 -5.55112e-17
174 1 150.402 170.646 -5.55112e-17
175 2 204.534 87.5887 -5.55112e-17
176 1 52.2326 204.33 -5.55112e-17
177 2 149.191 69.0706 -5.55112e-17
178 1 142.126 198.214 -5.55112e-17
179 1 214.586 120.189 -5.55112e-17
180 1 168.736 8.87739 -5.55112e-17
181 1 19.7561 180.677 -5.55112e-17
182 2 41.5757 91.7756 -5.55112e-17
183 1 43.4903 12.1148 -5.55112e-17
184 1 217.48 168.889 -5.55112e-17
185 2 11.4491 19.9492 -5.55112e-17
186 2 161.853 145.01 -5.55112e-17
187 1 37.403 106.67 -5.55112e-17
188 1 38.0068 2.40855 -5.55112e-17
189 1 200.789 123.185 -5.55112e-17
190 2 10.0948 5.40903 -5.55112e-17
191 1 0.869175 9.29911 -5.55112e-17
192 2 137.232 179.605 -5.55112e-17
193 2 101.553 205.467 -5.55112e-17
194 1 144.144 9.46397 -5.55112e-17
195 1 138.448 90.8719 -5.55112e-17
196 1 163.774 107.481 -5.55112e-17
197 1 133.326 59.0266 -5.55112e-17
198 2 62.4101 183.824 -5.55112e-17
199 1 201.797 171.051 -5.55112e-17
200 1 121.988 144.4 -5.55112e-17
201 2 155.963 164.51 -5.55112e-17
202 1 61.9685 138.485 -5.55112e-17
203 1 73.5175 133.185 -5.55112e-17
204 1 214.911 61.317 -5.55112e-17
205 2 149.372 110.686 -5.55112e-17
206 1 206.638 164.178 -5.55112e-17
207 1 94.571 164.252 -5.55112e-17
208 1 19.5271 75.0495 -5.55112e-17
209 1 42.6036 96.8701 -5.55112e-17
210 1 47.8609 75.0427 -5.55112e-17
211 2 145.684 143.267 -5.55112e-17
212 1 190.52 28.8346 -5.55112e-17
213 1 147.025 1.72072 -5.55112e-17
214 1 28.8681 205.571 -5.55112e-17
215 1 147.232 120.478 -5.55112e-17
216 1 98.8504 134.887 -5.55112e-17
217 1 195.075 106.786 -5.55112e-17
218 2 93.3165 76.2402 -5.55112e-17
219 1 156.414 216.965 -5.55112e-17
220 2 30.7803 88.6583 -5.55112e-17
221 1 177.721 94.2651 -5.55112e-17
222 1 68.6357 200.916 -5.55112e-17
223 1 42.8104 208.504 -5.55112e-17
224 2 83.195 150.961 -5.55112e-17
225 1 107.607 109.871 -5.55112e-17
226 1 26.205 182.235 -5.55112e-17
227 2 211.719 110.947 -5.55112e-17
228 1 198.75 144.694 -5.55112e-17
229 1 217.36 60.3264 -5.55112e-17
230 1 43.4724 134.194 -5.55112e-17
231 1 67.8456 97.1555 -5.55112e-17
232 1 108.184 138.183 -5.55112e-17
233 1 186.528 63.1727 -5.55112e-17
234 1 41.0992 156.369 -5.55112e-17
235 1 38.0349 174.14 -5.55112e-17
236 1 36.9981 118.688 -5.55112e-17
237 1 58.3905 78.6471 -5.55112e-17
238 1 35.8208 3.79244 -5.55112e-17
239 2 55.7093 117.647 -5.55112e-17
240 1 75.3616 49.7855 -5.55112e-17
241 2 155.778 56.6552 -5.55112e-17
242 2 84.87 120.538 -5.55112e-17
243 2 130.377 183.654 -5.55112e-17
244 1 46.8152 134.342 -5.55112e-17
245 1 163.184 69.021 -5.55112e-17
246 1 191 159.11 -5.55112e-17
247 1 181.997 207.564 -5.55112e-17
248 1 177.894 25.292 -5.55112e-17
249 1 22.7486 146.574 -5.55112e-17
250 2 158.808 40.7386 -5.55112e-17
251 1 139.522 51.4844 -5.55112e-17
252 1 71.9467 150.696 -5.55112e-17
253 1 193.662 141.093 -5.55112e-17
254 2 4.12184 137.177 -5.55112e-17
255 1 33.2733 66.1388 -5.55112e-17
256 1 44.6048 72.1363 -5.55112e-17
257 1 37.672 152.713 -5.55112e-17
258 2 185.868 181.718 -5.55112e-17
259 1 148.223 141.852 -5.55112e-17
260 1 43.0835 118.786 -5.55112e-17
261 1 100.417 109.29 -5.55112e-17
262 1 192.976 12.3207 -5.55112e-17
263 1 207.392 52.4504 -5.55112e-17
264 1 104.04 166.401 -5.55112e-17
265 1 106.25 47.4485 -5.55112e-17
266 1 72.8484 60.0314 -5.55112e-17
267 1 117.219 3.23546 -5.55112e-17
268 1 73.588 135.809 -5.55112e-17
269 1 89.5825 212.457 -5.55112e-17
270 1 153.32 26.4304 -5.55112e-17
271 1 205.156 47.6763 -5.55112e-17
272 1 108.015 130.696 -5.55112e-17
273 1 181.077 106.282 -5.55112e-17
274 2 110.017 206.175 -5.55112e-17
275 1 84.8865 209.84 -5.55112e-17
276 2 32.3643 44.6828 -5.55112e-17
277 2 112.551 88.3339 -5.55112e-17
278 1 158.049 145.898 -5.55112e-17
279 2 147.297 189.849 -5.55112e-17
280 1 113.408 43.8896 -5.55112e-17
281 1 168.534 113.503 -5.55112e-17
282 1 34.9246 204.844 -5.55112e-17
283 1 40.6263 142.559 -5.55112e-17
284 1 56.9371 205.057 -5.55112e-17
285 1 121.718 39.3427 -5.55112e-17
286 2 149.811 100.645 -5.55112e-17
287 1 68.5277 130.873 -5.55112e-17
288 1 54.5148 44.6362 -5.55112e-17
289 1 147.802 154.102 -5.55112e-17
290 1 199.152 58.3437 -5.55112e-17
291 1 133.04 118.415 -5.55112e-17
292 2 111.823 174.293 -5.55112e-17
293 2 159.895 202.865 -5.55112e-17
294 1 172.78 105.063 -5.55112e-17
295 1 211.297 29.3848 -5.55112e-17
296 1 16.0962 22.4679 -5.55112e-17
297 1 169.683 214.366 -5.55112e-17
298 1 141.807 3.93224 -5.55112e-17
299 1 119.72 167.905 -5.55112e-17
300 2 153.844 212.432 -5.55112e-17
301 1 62.0598 175.614 -5.55112e-17
302 1 39.6744 26.1817 -5.55112e-17
303 2 47.4138 55.7192 -5.55112e-17
304 2 99.9181 65.2353 -5.55112e-17
305 1 180.314 187.938 -5.55112e-17
306 1 162.03 178.751 -5.55112e-17
307 1 208.912 35.0643 -5.55112e-17
308 1 37.5164 145.921 -5.55112e-17
309 2 76.0629 43.3805 -5.55112e-17
310 1 197.754 161.175 -5.55112e-17
311 1 91.2654 56.4353 -5.55112e-17
312 1 41.3097 139.585 -5.55112e-17
313 2 98.1506 160.135 -5.55112e-17
314 1 7.26538 85.3318 -5.55112e-17
315 1 27.4316 158.779 -5.55112e-17
316 1 34.0509 8.03565 -5.55112e-17
317 1 33.9696 153.247 -5.55112e-17
318 1 107.29 158.526 -5.55112e-17
319 1 81.3015 215.34 -5.55112e-17
320 1 73.7571 122.706 -5.55112e-17
321 1 157.155 184.079 -5.55112e-17
322 1 211.519 35.416 -5.55112e-17
323 1 129.624 139.771 -5.55112e-17
324 1 65.7569 44.995 -5.55112e-17
325 1 31.0265 162.591 -5.55112e-17
326 1 164.18 4.37271 -5.55112e-17
327 2 124.745 151.822 -5.55112e-17
328 1 190.417 92.794 -5.55112e-17
329 2 175.624 191.349 -5.55112e-17
330 1 145.769 197.459 -5.55112e-17
331 1 143.886 145.734 -5.55112e-17
332 2 53.3289 38.3203 -5.55112e-17
333 1 182.763 111.13 -5.55112e-17
334 1 213.726 57.0949 -5.55112e-17
335 1 67.8859 61.0982 -5.55112e-17
336 1 172.28 160.546 -5.55112e-17
337 1 35.6472 151.224 -5.55112e-17
338 1 91.8694 50.2813 -5.55112e-17
339 1 9.62845 62.6632 -5.55112e-17
340 1 195.04 49.014 -5.55112e-17
341 1 134.92 60.9108 -5.55112e-17
342 1 98.2991 110.544 -5.55112e-17
343 1 19.1559 93.5166 -5.55112e-17
344 1 166.558 171.477 -5.55112e-17
345 1 81.6176 193.415 -5.55112e-17
346 1 94.6661 193.361 -5.55112e-17
347 1 191.004 218.435 -5.55112e-17
348 1 107.498 196.737 -5.55112e-17
349 1 174.202 46.969 -5.55112e-17
350 2 44.8177 38.6123 -5.55112e-17
351 1 141.692 200.601 -5.55112e-17
352 1 22.9837 149.355 -5.55112e-17
353 1 146.415 204.525 -5.55112e-17
354 1 165.952 32.2589 -5.55112e-17
355 1 1.51184 106.291 -5.55112e-17
356 1 68.8752 161.928 -5.55112e-17
357 1 160.85 187.709 -5.55112e-17
358 1 174.236 27.1384 -5.55112e-17
359 1 190.924 106.12 -5.55112e-17
360 1 145.701 137.606 -5.55112e-17
361 1 199.352 21.8918 -5.55112e-17
362 1 174.123 62.9914 -5.55112e-17
363 1 158.345 67.0421 -5.55112e-17
364 2 27.7907 145.586 -5.55112e-17
365 1 118.748 10.6135 -5.55112e-17
366 1 202.402 80.1301 -5.55112e-17
367 1 27.9387 109.108 -5.55112e-17
368 1 28.3603 54.4977 -5.55112e-17
369 2 199.154 134.237 -5.55112e-17
370 1 108.235 29.8563 -5.55112e-17
371 1 29.6346 190.894 -5.55112e-17
372 2 51.5177 135.6 -5.55112e-17
373 2 74.6854 21.7615 -5.55112e-17
374 1 148.18 7.15647 -5.55112e-17
375 1 32.32 186.103 -5.55112e-17
376 1 125.166 174.484 -5.55112e-17
377 1 140.479 186.474 -5.55112e-17
378 1 129.801 193.882 -5.55112e-17
379 1 128.68 189.031 -5.55112e-17
380 1 151.77 205.064 -5.55112e-17
381 1 188.931 110.755 -5.55112e-17
382 1 196.256 122.462 -5.55112e-17
383 1 34.15 92.8982 -5.55112e-17
384 1 35.557 36.9111 -5.55112e-17
385 1 84.4122 55.8499 -5.55112e-17
386 2 32.304 191.366 -5.55112e-17
387 1 144.198 63.0491 -5.55112e-17
388 1 39.9638 70.6842 -5.55112e-17
389 1 43.2598 19.7325 -5.55112e-17
390 2 26.65 106.446 -5.55112e-17
391 2 105.666 139.949 -5.55112e-17
392 1 209.227 208.999 -5.55112e-17
393 1 212.058 186.118 -5.55112e-17
394 1 69.8228 215.028 -5.55112e-17
395 1 175.759 53.5091 -5.55112e-17
396 1 161.279 117.886 -5.55112e-17
397 1 32.5909 117.683 -5.55112e-17
398 1 24.2396 95.6129 -5.55112e-17
399 1 190.052 73.998 -5.55112e-17
400 1 52.8036 181.017 -5.55112e-17
401 1 192.549 16.6047 -5.55112e-17
402 2 12.7797 186.012 -5.55112e-17
403 1 77.7282 167.968 -5.55112e-17
404 1 210.083 2.30078 -5.55112e-17
405 1 50.4132 174.953 -5.55112e-17
406 1 44.8146 117.129 -5.55112e-17
407 2 66.6531 47.8439 -5.55112e-17
408 1 110.109 97.8571 -5.55112e-17
409 1 107.428 76.7395 -5.55112e-17
410 1 196.708 95.6105 -5.55112e-17
411 1 118.323 212.262 -5.55112e-17
412 1 11.1729 116.137 -5.55112e-17
413 1 81.7527 119.711 -5.55112e-17
414 1 169.467 161.453 -5.55112e-17
415 1 75.9024 111.776 -5.55112e-17
416 1 39.0357 188.954 -5.55112e-17
417 1 171.427 209.381 -5.55112e-17
418 2 214.287 92.9686 -5.55112e-17
419 1 58.2252 8.04874 -5.55112e-17
420 2 102.086 218.565 -5.55112e-17
421 1 25.4087 194.707 -5.55112e-17
422 1 193.34 123.459 -5.55112e-17
423 2 124.93 2.78945 -5.55112e-17
424 1 145.277 89.6841 -5.55112e-17
425 1 14.9072 95.2315 -5.55112e-17
426 1 104.754 213.475 -5.55112e-17
427 1 4.44659 114.985 -5.55112e-17
428 1 44.5309 7.61083 -5.55112e-17
429 1 159.318 174.776 -5.55112e-17
430 1 120.145 73.5045 -5.55112e-17
431 1 131.61 100.806 -5.55112e-17
432 1 75.0852 187.543 -5.55112e-17
433 1 211.08 193.496 -5.55112e-17
434 1 50.201 202.675 -5.55112e-17
435 1 85.8645 112.689 -5.55112e-17
436 1 83.8387 216.32 -5.55112e-17
437 1 99.5666 203.594 -5.55112e-17
438 2 14.8397 157.273 -5.55112e-17
439 1 74.6392 78.2846 -5.55112e-17
440 1 138.28 31.4442 -5.55112e-17
441 1 25.578 160.695 -5.55112e-17
442 1 117.474 41.7262 -5.55112e-17
443 1 114.695 115.565 -5.55112e-17
444 1 97.503 169.71 -5.55112e-17
445 1 100.078 129.172 -5.55112e-17
446 1 10.0893 133.281 -5.55112e-17
447 1 115.51 101.808 -5.55112e-17
448 1 38.7242 155.402 -5.55112e-17
449 1 204.404 107.288 -5.55112e-17
450 1 134.266 130.227 -5.55112e-17
451 1 77.3428 140.184 -5.55112e-17
452 1 202.958 156.083 -5.55112e-17
453 1 168.52 121.836 -5.55112e-17
454 1 215.545 26.0586 -5.55112e-17
455 1 81.034 135.028 -5.55112e-17
456 1 178.199 49.1049 -5.55112e-17
457 1 117.868 72.0098 -5.55112e-17
458 1 207.343 126.228 -5.55112e-17
459 1 76.3869 96.9916 -5.55112e-17
460 1 132.895 181.759 -5.55112e-17
461 1 74.5869 80.5886 -5.55112e-17
462 1 6.90668 44.6316 -5.55112e-17
463 1 189.77 50.5303 -5.55112e-17
464 1 72.1844 70.6792 -5.55112e-17
465 1 216.621 131.573 -5.55112e-17
466 1 179.34 92.1532 -5.55112e-17
467 1 106.027 180.04 -5.55112e-17
468 1 50.0471 127.778 -5.55112e-17
469 1 24.202 209.785 -5.55112e-17
470 1 47.1195 117.715 -5.55112e-17
471 1 65.6201 191.503 -5.55112e-17
472 1 167.614 197.023 -5.55112e-17
473 1 174.648 77.2943 -5.55112e-17
474 1 69.6179 169.978 -5.55112e-17
475 1 218.739 196.271 -5.55112e-17
476 2 134.556 99.9129 -5.55112e-17
477 1 170.228 159.162 -5.55112e-17
478 1 69.7505 120.648 -5.55112e-17
479 1 58.9075 195.331 -5.55112e-17
480 1 209.064 191.464 -5.55112e-17
481 1 115.368 112.848 -5.55112e-17
482 1 129.374 36.6984 -5.55112e-17
483 1 86.8843 21.7725 -5.55112e-17
484 2 41.3407 217.565 -5.55112e-17
485 1 45.4401 41.7541 -5.55112e-17
486 1 124.753 123.455 -5.55112e-17
487 1 100.239 75.0984 -5.55112e-17
488 1 215.677 174.195 -5.55112e-17
489 1 15.4692 210.278 -5.55112e-17
490 1 11.1112 66.3268 -5.55112e-17
491 1 191.899 168.544 -5.55112e-17
492 1 121.053 59.2068 -5.55112e-17
493 1 16.8645 144.586 -5.55112e-17
494 1 17.7882 169.272 -5.55112e-17
495 1 93.7568 185.458 -5.55112e-17
496 2 119.822 160.891 -5.55112e-17
497 1 142.063 28.586 -5.55112e-17
498 1 128.556 62.0646 -5.55112e-17
499 2 3.57335 147.288 -5.55112e-17
500 1 166.994 101.354 -5.55112e-17
501 2 31.729 206.202 -5.55112e-17
502 2 193.227 47.0213 -5.55112e-17
503 1 115.254 207.458 -5.55112e-17
504 1 203.916 153.863 -5.55112e-17
505 1 160.677 133.654 -5.55112e-17
506 1 208.992 30.2094 -5.55112e-17
507 1 119.74 113.207 -5.55112e-17
508 1 214.056 197.57 -5.55112e-17
509 2 202.679 1.19402 -5.55112e-17
510 2 151.306 34.1508 -5.55112e-17
511 1 4.27268 25.6605 -5.55112e-17
512 2 159.304 51.5788 -5.55112e-17
513 1 35.6806 91.2391 -5.55112e-17
514 1 105.203 156.744 -5.55112e-17
515 1 47.5119 128.293 -5.55112e-17
516 1 20.7002 61.475 -5.55112e-17
517 1 194.237 120.846 -5.55112e-17
518 2 26.0924 100.975 -5.55112e-17
519 1 94.4014 112.906 -5.55112e-17
520 2 106.831 8.27986 -5.55112e-17
521 1 104.887 130.469 -5.55112e-17
522 1 6.22499 124.745 -5.55112e-17
523 1 205.406 176.916 -5.55112e-17
524 1 82.01 54.8931 -5.55112e-17
525 1 99.1514 167.562 -5.55112e-17
526 1 13.936 135.832 -5.55112e-17
527 1 120.162 53.9004 -5.55112e-17
528 1 42.6407 109.924 -5.55112e-17
529 1 90.9263 16.091 -5.55112e-17
530 1 216.798 62.9324 -5.55112e-17
531 1 90.2704 171.246 -5.55112e-17
532 1 51.5019 92.8828 -5.55112e-17
533 1 102.918 157.838 -5.55112e-17
534 1 138.952 68.8382 -5.55112e-17
535 1 111.608 39.3045 -5.55112e-17
536 1 131.447 35.7511 -5.55112e-17
537 1 89.4854 195.166 -5.55112e-17
538 1 13.0286 202.843 -5.55112e-17
539 1 33.7137 79.5104 -5.55112e-17
540 1 140.573 202.571 -5.55112e-17
541 1 139.477 200.087 -5.55112e-17
542 1 129.886 2.87822 -5.55112e-17
543 1 165.884 19.9018 -5.55112e-17
544 1 42.231 64.6119 -5.55112e-17
545 1 113.084 146.693 -5.55112e-17
546 1 38.8389 180.031 -5.55112e-17
547 1 156.48 159.336 -5.55112e-17
548 1 39.9867 109.927 -5.55112e-17
549 1 213.142 177.769 -5.55112e-17
550 2 62.8734 36.442 -5.55112e-17
551 2 189.258 175.771 -5.55112e-17
552 2 67.7142 189.746 -5.55112e-17
553 1 118.845 165.713 -5.55112e-17
554 1 78.0575 157.942 -5.55112e-17
555 2 122.761 102.097 -5.55112e-17
556 1 40.6634 209.935 -5.55112e-17
557 1 202.626 101.555 -5.55112e-17
558 1 191.641 10.2459 -5.55112e-17
559 1 195.107 63.761 -5.55112e-17
560 1 103.941 15.1775 -5.55112e-17
561 1 165.757 90.8861 -5.55112e-17
562 1 141.305 137.53 -5.55112e-17
563 2 41.7274 136.644 -5.55112e-17
564 1 169.159 170.852 -5.55112e-17
565 1 196.066 145.269 -5.55112e-17
566 1 8.84932 200.864 -5.55112e-17
567 1 213.608 202.151 -5.55112e-17
568 1 211.159 175.927 -5.55112e-17
569 1 11.4152 161.336 -5.55112e-17
570 1 129.353 84.062 -5.55112e-17
571 1 112.047 159.764 -5.55112e-17
572 1 192.761 5.45785 -5.55112e-17
573 1 143.646 185.291 -5.55112e-17
574 1 21.2548 104.153 -5.55112e-17
575 1 213.166 100.509 -5.55112e-17
576 1 73.2125 138.722 -5.55112e-17
577 1 189.939 200.817 -5.55112e-17
578 1 2.92203 62.0067 -5.55112e-17
579 1 52.9712 90.5806 -5.55112e-17
580 1 182.186 173.015 -5.55112e-17
581 1 34.0691 165.898 -5.55112e-17
582 1 123.873 47.7998 -5.55112e-17
583 1 177.643 216.685 -5.55112e-17
584 2 217.567 68.2858 -5.55112e-17
585 1 208.954 106.326 -5.55112e-17
586 1 113.99 83.3715 -5.55112e-17
587 1 209.52 181.458 -5.55112e-17
588 1 110.927 218.191 -5.55112e-17
589 1 40.8056 62.5059 -5.55112e-17
590 1 72.7743 84.5824 -5.55112e-17
591 1 61.7323 122.372 -5.55112e-17
592 1 98.1211 139.822 -5.55112e-17
593 1 144.847 84.0139 -5.55112e-17
594 1 42.8736 149.239 -5.55112e-17
595 1 78.1234 128.23 -5.55112e-17
596 1 161.021 210.924 -5.55112e-17
597 2 215.27 86.8262 -5.55112e-17
598 1 163.309 116.696 -5.55112e-17
599 1 127.821 169.177 -5.55112e-17
600 1 196.508 187.804 -5.55112e-17
601 1 125.259 169.116 -5.55112e-17
602 1 125.191 198.001 -5.55112e-17
603 1 153.361 16.8482 -5.55112e-17
604 1 69.6626 78.1572 -5.55112e-17
605 2 40.12 192.057 -5.55112e-17
606 1 185.839 195.793 -5.55112e-17
607 2 186.584 128.559 -5.55112e-17
608 1 2.93249 184.127 -5.55112e-17
609 1 198.719 113.659 -5.55112e-17
610 1 22.6179 218.93 -5.55112e-17
611 1 130.601 76.7027 -5.55112e-17
612 1 153.002 182.279 -5.55112e-17
613 1 15.5731 111.813 -5.55112e-17
614 2 186.173 111.894 -5.55112e-17
615 1 138.527 210.492 -5.55112e-17
616 1 128.683 68.644 -5.55112e-17
617 1 124.762 178.292 -5.55112e-17
618 1 40.7349 197.172 -5.55112e-17
619 1 214.498 182.166 -5.55112e-17
620 1 108.711 200.445 -5.55112e-17
621 1 70.3729 157.895 -5.55112e-17
622 1 87.767 108.248 -5.55112e-17
623 1 32.0658 11.6946 -5.55112e-17
624 1 137.552 34.1073 -5.55112e-17
625 1 187.229 156.782 -5.55112e-17
626 1 169.309 188.198 -5.55112e-17
627 1 126.174 117.713 -5.55112e-17
628 1 86.1495 145.525 -5.55112e-17
629 1 30.1779 193.531 -5.55112e-17
630 2 38.2655 58.2262 -5.55112e-17
631 1 0.222401 46.8032 -5.55112e-17
632 1 140.912 209.856 -5.55112e-17
633 1 134.413 67.6953 -5.55112e-17
634 1 158.822 108.252 -5.55112e-17
635 1 80.3426 210.098 -5.55112e-17
636 1 127.977 49.5773 -5.55112e-17
637 1 78.0562 178.56 -5.55112e-17
638 1 98.6511 154.136 -5.55112e-17
639 2 122.416 34.1744 -5.55112e-17
640 1 212.71 37.8701 -5.55112e-17
641 1 33.802 99.6582 -5.55112e-17
642 1 151.674 86.2206 -5.55112e-17
643 2 115.75 11.6595 -5.55112e-17
644 1 36.5684 79.6291 -5.55112e-17
645 1 69.1388 69.1302 -5.55112e-17
646 2 178.092 66.7266 -5.55112e-17
647 1 163.214 127.966 -5.55112e-17
648 1 53.6502 70.7744 -5.55112e-17
649 2 60.9919 199.313 -5.55112e-17
650 1 90.7802 19.1993 -5.55112e-17
651 1 135.143 114.021 -5.55112e-17
652 1 160.769 42.7003 -5.55112e-17
653 1 136.922 191.922 -5.55112e-17
654 1 108.515 105.561 -5.55112e-17
655 2 136.008 205.689 -5.55112e-17
656 1 124.888 83.0248 -5.55112e-17
657 2 163.11 92.3943 -5.55112e-17
658 1 160.243 177.253 -5.55112e-17
659 2 185.694 190.385 -5.55112e-17
660 1 169.283 40.1844 -5.55112e-17
661 1 172.732 190.996 -5.55112e-17
662 1 137.773 161.654 -5.55112e-17
663 1 92.3737 2.52985 -5.55112e-17
664 1 92.5425 96.2146 -5.55112e-17
665 1 164.841 155.212 -5.55112e-17
666 2 124.011 201.645 -5.55112e-17
667 1 188.46 154.802 -5.55112e-17
668 2 163.806 172.378 -5.55112e-17
669 1 82.8291 208.493 -5.55112e-17
670 1 173.606 204.314 -5.55112e-17
671 2 86.6208 29.9382 -5.55112e-17
672 1 16.5718 33.5451 -5.55112e-17
673 1 176.704 88.2991 -5.55112e-17
674 1 47.8702 182.557 -5.55112e-17
675 1 47.6553 213.111 -5.55112e-17
676 1 113.389 61.2801 -5.55112e-17
677 1 81.7893 186.22 -5.55112e-17
678 1 207.547 86.4371 -5.55112e-17
679 2 165.833 202.829 -5.55112e-17
680 1 149.501 93.1737 -5.55112e-17
681 2 201.473 92.2712 -5.55112e-17
682 1 75.7641 134.402 -5.55112e-17
683 1 189.45 205.72 -5.55112e-17
684 1 33.4385 188.409 -5.55112e-17
685 1 84.2886 186.738 -5.55112e-17
686 1 40.2258 175.473 -5.55112e-17
687 1 65.2475 111.742 -5.55112e-17
688 1 90.9431 137.105 -5.55112e-17
689 2 156.423 33.5052 -5.55112e-17
690 1 68.0045 0.32809 -5.55112e-17
691 1 202.697 72.2199 -5.55112e-17
692 1 174.341 2.61475 -5.55112e-17
693 1 44.8023 194.52 -5.55112e-17
694 1 77.7159 26.4642 -5.55112e-17
695 1 143.054 86.3874 -5.55112e-17
696 1 99.1219 59.9201 -5.55112e-17
697 1 81.3672 154.161 -5.55112e-17
698 1 70.7106 64.9024 -5.55112e-17
699 1 56.3654 76.3861 -5.55112e-17
700 1 208.107 16.3316 -5.55112e-17
701 1 6.0649 58.5024 -5.55112e-17
702 1 169.056 192.654 -5.55112e-17
703 2 146.501 64.68 -5.55112e-17
704 1 108.552 21.1439 -5.55112e-17
705 2 167.147 190.18 -5.55112e-17
706 1 151.976 28.4698 -5.55112e-17
707 1 20.8591 161.375 -5.55112e-17
708 1 19.4318 32.7736 -5.55112e-17
709 1 162.455 64.2964 -5.55112e-17
710 1 80.6637 195.632 -5.55112e-17
711 1 200.205 115.853 -5.55112e-17
712 1 44.2594 203.624 -5.55112e-17
713 1 75.1209 27.0077 -5.55112e-17
714 1 99.8154 149.029 -5.55112e-17
715 1 159.531 27.5104 -5.55112e-17
716 1 5.06772 211.851 -5.55112e-17
717 1 158.337 29.5242 -5.55112e-17
718 1 205.304 214.47 -5.55112e-17
719 2 71.8087 204.847 -5.55112e-17
720 1 44.0342 121.865 -5.55112e-17
721 1 70.7265 17.8517 -5.55112e-17
722 1 40.761 170.397 -5.55112e-17
723 2 176.451 74.9275 -5.55112e-17
724 1 184.641 141.843 -5.55112e-17
725 1 154.463 86.944 -5.55112e-17
726 1 109.76 158.986 -5.55112e-17
727 1 195.222 16.6163 -5.55112e-17
728 2 57.6704 49.5068 -5.55112e-17
729 1 93.5682 196.048 -5.55112e-17
730 1 190.527 203.205 -5.55112e-17
731 1 158.608 32.1186 -5.55112e-17
732 1 113.497 218.159 -5.55112e-17
733 1 87.6757 143.296 -5.55112e-17
734 1 168.976 99.4739 -5.55112e-17
735 1 77.887 142.875 -5.55112e-17
736 2 213.52 171.989 -5.55112e-17
737 1 164.083 164.584 -5.55112e-17
738 1 46.4399 15.9865 -5.55112e-17
739 1 217.192 15.1301 -5.55112e-17
740 1 196.444 114.075 -5.55112e-17
741 2 35.7055 176.085 -5.55112e-17
742 1 129.789 55.2032 -5.55112e-17
743 1 183.642 1.71673 -5.55112e-17
744 2 34.0196 210.248 -5.55112e-17
745 1 180.609 97.4162 -5.55112e-17
746 1 104.625 60.7888 -5.55112e-17
747 2 146.91 9.82937 -5.55112e-17
748 1 217.091 109.339 -5.55112e-17
749 1 113.071 200.975 -5.55112e-17
750 1 214.589 150.145 -5.55112e-17
751 1 81.1217 200.977 -5.55112e-17
752 1 144.508 148.051 -5.55112e-17
753 1 91.422 208.342 -5.55112e-17
754 1 159.694 161.74 -5.55112e-17
755 1 79.4557 185.992 -5.55112e-17
756 2 29.773 118.167 -5.55112e-17
757 1 43.5385 192.068 -5.55112e-17
758 1 27.6997 8.11617 -5.55112e-17
759 1 172.698 48.7023 -5.55112e-17
760 1 111.98 191.792 -5.55112e-17
761 1 214.191 184.46 -5.55112e-17
762 1 61.4889 19.6754 -5.55112e-17
763 1 26.2665 188.736 -5.55112e-17
764 2 0.587236 201.75 -5.55112e-17
765 1 175.503 44.5817 -5.55112e-17
766 1 18.3508 111.518 -5.55112e-17
767 1 151.735 44.6426 -5.55112e-17
768 1 204.881 8.96539 -5.55112e-17
769 1 97.1546 129.917 -5.55112e-17
770 2 118.149 87.2965 -5.55112e-17
771 1 139.212 191.94 -5.55112e-17
772 1 197.945 184.742 -5.55112e-17
773 1 55.9752 95.1797 -5.55112e-17
774 1 39.6223 107.613 -5.55112e-17
775 1 117.917 90.7506 -5.55112e-17
776 1 170.895 114.518 -5.55112e-17
777 1 217.1 4.1663 -5.55112e-17
778 1 25.1463 8.55896 -5.55112e-17
779 1 25.6525 150.576 -5.55112e-17
780 1 105.092 87.1705 -5.55112e-17
781 1 106.749 34.0244 -5.55112e-17
782 1 162.939 61.6105 -5.55112e-17
783 1 101.566 41.0135 -5.55112e-17
784 2 120.933 207.652 -5.55112e-17
785 1 155.133 150.669 -5.55112e-17
786 1 149.457 66.1758 -5.55112e-17
787 1 71.2654 91.4533 -5.55112e-17
788 1 169.542 195.025 -5.55112e-17
789 2 74.6898 167.386 -5.55112e-17
790 1 70.3856 152.177 -5.55112e-17
791 2 54.3724 97.2357 -5.55112e-17
792 2 1.30865 169.401 -5.55112e-17
793 2 80.1885 80.5038 -5.55112e-17
794 1 161.164 16.7189 -5.55112e-17
795 1 143.617 213.944 -5.55112e-17
796 1 188.078 217.573 -5.55112e-17
797 1 190.865 34.4248 -5.55112e-17
798 2 2.75031 103.97 -5.55112e-17
799 2 0.523496 62.9998 -5.55112e-17
800 2 57.8549 146.016 -5.55112e-17
801 1 210.067 125.399 -5.55112e-17
802 1 182.84 88.3365 -5.55112e-17
803 1 136.961 154.433 -5.55112e-17
804 2 29.5252 125.985 -5.55112e-17
805 1 132.126 4.07418 -5.55112e-17
806 1 158.848 116.623 -5.55112e-17
807 2 5.25194 71.3629 -5.55112e-17
808 1 184.602 144.365 -5.55112e-17
809 2 32.1925 95.0572 -5.55112e-17
810 1 70.779 26.8908 -5.55112e-17
811 1 143.361 136.103 -5.55112e-17
812 1 115.035 30.483 -5.55112e-17
813 2 133.991 12.9377 -5.55112e-17
814 1 140.358 43.1169 -5.55112e-17
815 1 132.917 205.787 -5.55112e-17
816 1 210.197 52.8605 -5.55112e-17
817 1 118.457 104.884 -5.55112e-17
818 1 212.482 19.3163 -5.55112e-17
819 1 47.9041 210.548 -5.55112e-17
820 1 112.704 149.168 -5.55112e-17
821 1 106.526 165.786 -5.55112e-17
822 2 73.8601 198.901 -5.55112e-17
823 2 92.6951 139.2 -5.55112e-17
824 1 38.8074 131.358 -5.55112e-17
825 1 172.687 21.254 -5.55112e-17
826 1 23.1711 23.2627 -5.55112e-17
827 1 5.04127 142.233 -5.55112e-17
828 1 184.244 126.532 -5.55112e-17
829 1 48.7055 21.4745 -5.55112e-17
830 1 138.357 86.3845 -5.55112e-17
831 1 196.677 82.9797 -5.55112e-17
832 1 82.6148 36.7629 -5.55112e-17
833 1 185.641 115.127 -5.55112e-17
834 1 137.904 76.481 -5.55112e-17
835 1 94.8345 170.022 -5.55112e-17
836 1 38.5166 139.961 -5.55112e-17
837 1 211.594 106.062 -5.55112e-17
838 1 12.4875 70.8217 -5.55112e-17
839 2 20.5579 86.203 -5.55112e-17
840 1 107.575 170.324 -5.55112e-17
841 2 69.5926 29.4626 -5.55112e-17
842 1 74.9166 107.227 -5.55112e-17
843 2 175.672 36.8299 -5.55112e-17
844 1 109.347 185.307 -5.55112e-17
845 1 41.5927 121.064 -5.55112e-17
846 1 177.172 213.992 -5.55112e-17
847 1 76.5548 31.8244 -5.55112e-17
848 1 58.8034 160.917 -5.55112e-17
849 1 18.3502 142.35 -5.55112e-17
850 1 75.3879 121.069 -5.55112e-17
851 1 205.688 84.6438 -5.55112e-17
852 1 152.768 201.819 -5.55112e-17
853 1 82.5854 122.06 -5.55112e-17
854 1 141.87 35.1395 -5.55112e-17
855 1 95.5079 24.0489 -5.55112e-17
856 1 194.584 23.1185 -5.55112e-17