ITEM: TIMESTEP
0
ITEM: NUMBER OF ATOMS
7200
ITEM: BOX BOUNDS xy xz yz pp pp pp
0.0000000000000000e+00 2.1900000000000000e+02 0.0000000000000000e+00
0.0000000000000000e+00 2.1900000000000000e+02 0.0000000000000000e+00
-3.6499999999999999e-01 3.6499999999999999e-01 0.0000000000000000e+00
ITEM: ATOMS id type x y z
1 1 106.652 35.2159 -5.55112e-17
2 1 159.162 1.39177 -5.55112e-17
3 1 210.366 204.853 -5.55112e-17
4 1 60.7461 153.567 -5.55112e-17
5 1 9.16962 121.991 -5.55112e-17
6 1 147.57 123.648 -5.55112e-17
7 1 43.6302 179.063 -5.55112e-17
8 2 134.97 147.644 -5.55112e-17
9 1 132.612 158.48 -5.55112e-17
10 2 110.265 182.366 -5.55112e-17
11 1 151.088 50.9881 -5.55112e-17
12 1 4.57199 90.7598 -5.55112e-17
13 2 154.095 190.867 -5.55112e-17
14 1 127.026 151.017 -5.55112e-17
15 1 185.073 64.5533 -5.55112e-17
16 2 167.261 211.03 -5.55112e-17
17 1 170.556 96.1331 -5.55112e-17
18 2 96.4106 213.81 -5.55112e-17
19 1 15.8028 140.719 -5.55112e-17
20 1 170.167 131.903 -5.55112e-17
21 1 67.3898 177.18 -5.55112e-17
22 2 38.5173 137.885 -5.55112e-17
23 2 185.838 24.3082 -5.55112e-17
24 1 58.233 182.104 -5.55112e-17
25 1 81.3272 174.167 -5.55112e-17
26 2 11.5026 176.514 -5.55112e-17
27 1 8.96295 1.89995 -5.55112e-17
28 2 97.6609 133.366 -5.55112e-17
29 1 181.255 170.799 -5.55112e-17
30 1 86.2596 205.898 -5.55112e-17
31 1 58.6234 3.3235 -5.55112e-17
32 1 70.4866 200.239 -5.55112e-17
33 1 97.3632 151.147 -5.55112e-17
34 1 216.017 58.5296 -5.55112e-17
35 1 123.042 5.31697 -5.55112e-17
36 1 121.06 124.264 -5.55112e-17
37 2 158.783 17.5693 -5.55112e-17
38 1 184.352 182.204 -5.55112e-17
39 1 117.786 145.565 -5.55112e-17
40 1 188.042 25.8728 -5.55112e-17
41 1 104.032 35.6395 -5.55112e-17
42 1 204.685 120.942 -5.55112e-17
43 1 47.437 85.513 -5.55112e-17
44 1 145.839 45.9777 -5.55112e-17
45 1 124.585 56.5146 -5.55112e-17
46 1 20.8041 44.1484 -5.55112e-17
47 1 116.436 37.7028 -5.55112e-17
48 2 175.318 2.03934 -5.55112e-17
49 1 121.656 215.048 -5.55112e-17
50 1 89.9802 152.158 -5.55112e-17
51 1 39.0208 62.8965 -5.55112e-17
52 1 207.944 47.9312 -5.55112e-17
53 1 13.8016 183.811 -5.55112e-17
54 1 188.268 101.483 -5.55112e-17
55 1 203.139 143.216 -5.55112e-17
56 1 128.251 193.995 -5.55112e-17
57 2 197.858 27.8408 -5.55112e-17
58 1 158.124 185.04 -5.55112e-17
59 1 173.702 46.7772 -5.55112e-17
60 2 184.923 85.0797 -5.55112e-17
61 2 212.165 84.6472 -5.55112e-17
62 1 180.107 82.266 -5.55112e-17
63 1 196.7 184.081 -5.55112e-17
64 1 146.828 169.533 -5.55112e-17
65 1 150.709 193.522 -5.55112e-17
66 1 194.258 74.7521 -5.55112e-17
67 1 7.42139 12.7603 -5.55112e-17
68 1 29.5052 76.0391 -5.55112e-17
69 1 105.935 206.371 -5.55112e-17
70 1 17.1334 114.043 -5.55112e-17
71 1 214.004 166.433 -5.55112e-17
72 1 85.4815 180.189 -5.55112e-17
73 1 129.888 159.041 -5.55112e-17
74 1 48.2738 32.9882 -5.55112e-17
75 2 119.994 42.8195 -5.55112e-17
76 1 89.0397 89.2404 -5.55112e-17
77 1 133.951 53.8024 -5.55112e-17
78 1 60.5509 88.1434 -5.55112e-17
79 2 205.288 204.141 -5.55112e-17
80 1 211.381 165.109 -5.55112e-17
81 1 118.899 72.0095 -5.55112e-17
82 1 93.8614 214.725 -5.55112e-17
83 2 141.475 19.7853 -5.55112e-17
84 1 7.00774 42.3992 -5.55112e-17
85 1 70.3675 159.299 -5.55112e-17
86 1 181.09 31.4137 -5.55112e-17
87 1 111.76 116.571 -5.55112e-17
88 1 86.2704 154.77 -5.55112e-17
89 2 32.1639 173.357 -5.55112e-17
90 2 15.1269 60.427 -5.55112e-17
91 1 130.378 144.881 -5.55112e-17
92 2 216.552 161.879 -5.55112e-17
93 1 21.6231 22.8104 -5.55112e-17
94 2 84.4192 80.5181 -5.55112e-17
95 1 215.519 216.574 -5.55112e-17
96 1 22.3911 31.6011 -5.55112e-17
97 1 108.254 198.97 -5.55112e-17
98 1 146.476 51.2986 -5.55112e-17
99 1 75.2302 197.013 -5.55112e-17
100 1 35.0961 82.5761 -5.55112e-17
101 1 28.1657 36.1968 -5.55112e-17
102 1 161.468 17.0788 -5.55112e-17
103 1 36.5396 175.925 -5.55112e-17
104 1 140.5 63.6728 -5.55112e-17
105 1 214.659 17.3833 -5.55112e-17
106 1 158.153 99.4821 -5.55112e-17
107 2 37.2305 4.14378 -5.55112e-17
108 1 186.709 2.62255 -5.55112e-17
109 1 107.977 71.0712 -5.55112e-17
110 1 139.537 108.734 -5.55112e-17
111 1 21.027 217.207 -5.55112e-17
112 1 149.739 95.7349 -5.55112e-17
113 1 134.748 13.7195 -5.55112e-17
114 1 83.0795 166.967 -5.55112e-17
115 1 69.2184 108.23 -5.55112e-17
116 2 14.4618 153.53 -5.55112e-17
117 1 210.984 170.936 -5.55112e-17
118 1 68.6934 23.8318 -5.55112e-17
119 2 98.1009 84.4851 -5.55112e-17
120 1 218.089 154.679 -5.55112e-17
121 1 171.999 35.0252 -5.55112e-17
122 1 43.0963 153.51 -5.55112e-17
123 1 100.692 145.584 -5.55112e-17
124 1 161.668 169.341 -5.55112e-17
125 1 180.543 132.792 -5.55112e-17
126 1 190.596 182.409 -5.55112e-17
127 1 22.4886 83.4309 -5.55112e-17
128 1 148.797 147.378 -5.55112e-17
129 1 183.975 170.319 -5.55112e-17
130 1 142.383 126.144 -5.55112e-17
131 1 19.5176 9.39631 -5.55112e-17
132 2 160.492 192.391 -5.55112e-17
133 1 98.3834 121.966 -5.55112e-17
134 1 154.93 14.5275 -5.55112e-17
135 1 75.7084 136.561 -5.55112e-17
136 1 40.3732 78.2705 -5.55112e-17
137 1 111.747 29.7841 -5.55112e-17
138 1 157.138 86.0121 -5.55112e-17
139 1 0.631858 120.058 -5.55112e-17
140 2 149.838 161.915 -5.55112e-17
141 1 110.62 113.937 -5.55112e-17
142 2 33.2316 186.56 -5.55112e-17
143 1 28.8914 106.879 -5.55112e-17
144 2 25.6137 112.453 -5.55112e-17
145 1 215.642 154.163 -5.55112e-17
146 1 114.874 146.589 -5.55112e-17
147 1 115.435 177.013 -5.55112e-17
148 1 42.698 141.146 -5.55112e-17
149 1 63.3443 6.39512 -5.55112e-17
150 1 150.248 42.8939 -5.55112e-17
151 1 37.4881 168.585 -5.55112e-17
152 1 199.582 59.5345 -5.55112e-17
153 2 93.926 144.418 -5.55112e-17
154 1 180.284 88.2508 -5.55112e-17
155 1 115.748 19.8821 -5.55112e-17
156 2 22.9337 182.396 -5.55112e-17
157 1 199.812 111.632 -5.55112e-17
158 1 191.798 32.7458 -5.55112e-17
159 1 152.265 133.518 -5.55112e-17
160 1 93.4458 67.0453 -5.55112e-17
161 1 100.783 179.221 -5.55112e-17
162 1 12.8835 41.0406 -5.55112e-17
163 1 178.346 2.35769 -5.55112e-17
164 1 74.013 108.748 -5.55112e-17
165 1 41.5804 190.43 -5.55112e-17
166 2 164.432 75.8351 -5.55112e-17
167 1 129.473 150.267 -5.55112e-17
168 1 197.163 210.11 -5.55112e-17
169 1 5.73296 107.368 -5.55112e-17
170 1 104.033 16.8548 -5.55112e-17
171 1 198.195 43.0308 -5.55112e-17
172 1 145.332 184.526 -5.55112e-17
173 1 70.3911 156.712 -5.55112e-17
174 1 190.818 166.276 -5.55112e-17
175 2 188.79 127.223 -5.55112e-17
176 1 143.04 167.279 -5.55112e-17
177 2 43.8409 19.1982 -5.55112e-17
178 1 102.928 72.3601 -5.55112e-17
179 1 180.399 90.7501 -5.55112e-17
180 1 197.506 151.168 -5.55112e-17
181 1 34.3431 140.284 -5.55112e-17
182 2 158.986 181.727 -5.55112e-17
183 1 35.9253 121.638 -5.55112e-17
184 1 15.2915 32.7626 -5.55112e-17
185 2 164.167 191.577 -5.55112e-17
186 2 158.974 200.838 -5.55112e-17
187 1 169.74 10.8252 -5.55112e-17
188 1 210.61 10.1806 -5.55112e-17
189 1 92.7977 102.851 -5.55112e-17
190 2 125.47 176.541 -5.55112e-17
191 1 52.8762 103.265 -5.55112e-17
192 2 116.475 93.8995 -5.55112e-17
193 2 67.162 182.341 -5.55112e-17
194 1 152.068 86.2791 -5.55112e-17
195 1 174.858 145.216 -5.55112e-17
196 1 74.8925 4.28848 -5.55112e-17
197 1 50.2109 44.5364 -5.55112e-17
198 2 71.9737 129.099 -5.55112e-17
199 1 164.075 199.183 -5.55112e-17
200 1 107.919 187.362 -5.55112e-17
201 2 76.2634 71.4889 -5.55112e-17
202 1 160.581 133.369 -5.55112e-17
203 1 8.86858 151.166 -5.55112e-17
204 1 130.253 16.4416 -5.55112e-17
205 2 192.582 54.5398 -5.55112e-17
206 1 137.733 1.3403 -5.55112e-17
207 1 96.3818 120.129 -5.55112e-17
208 1 139.936 138.701 -5.55112e-17
209 1 139.833 58.7825 -5.55112e-17
210 1 206.244 186.499 -5.55112e-17
211 2 210.963 94.62 -5.55112e-17
212 1 92.7067 57.0226 -5.55112e-17
213 1 160.139 42.6701 -5.55112e-17
214 1 186.525 78.7515 -5.55112e-17
215 1 168.578 6.8448 -5.55112e-17
216 1 143.688 204.949 -5.55112e-17
217 1 67.7684 152.701 -5.55112e-17
218 2 152.95 115.082 -5.55112e-17
219 1 101.381 173.445 -5.55112e-17
220 2 63.18 158.132 -5.55112e-17
221 1 201.569 157.098 -5.55112e-17
222 1 209.833 38.6301 -5.55112e-17
223 1 151.293 184.299 -5.55112e-17
224 2 16.394 200.705 -5.55112e-17
225 1 102.302 130.444 -5.55112e-17
226 1 123.167 141.268 -5.55112e-17
227 2 63.577 205.397 -5.55112e-17
228 1 92.4628 0.714968 -5.55112e-17
229 1 96.1425 122.912 -5.55112e-17
230 1 6.78481 168.966 -5.55112e-17
231 1 134.64 95.1371 -5.55112e-17
232 1 183.409 179.65 -5.55112e-17
233 1 120.058 160.073 -5.55112e-17
234 1 178.462 68.5553 -5.55112e-17
235 1 12.4738 61.8723 -5.55112e-17
236 1 71.4845 29.5264 -5.55112e-17
237 1 202.322 87.2169 -5.55112e-17
238 1 56.1133 126.753 -5.55112e-17
239 2 40.5829 179.574 -5.55112e-17
240 1 179.189 102.014 -5.55112e-17
241 2 16.4535 182.775 -5.55112e-17
242 2 197.194 215.63 -5.55112e-17
243 2 109.383 28.2414 -5.55112e-17
244 1 213.635 161.57 -5.55112e-17
245 1 108.537 161.787 -5.55112e-17
246 1 171.466 154.823 -5.55112e-17
247 1 135.542 100.01 -5.55112e-17
248 1 94.9882 26.7883 -5.55112e-17
249 1 180.987 2.157 -5.55112e-17
250 2 37.0174 211.31 -5.55112e-17
251 1 91.2882 2.56891 -5.55112e-17
252 1 28.952 38.7649 -5.55112e-17
253 1 141.201 197.788 -5.55112e-17
254 2 172.282 119.104 -5.55112e-17
255 1 32.1786 209.218 -5.55112e-17
256 1 138.812 40.308 -5.55112e-17
257 1 5.84373 176.907 -5.55112e-17
258 2 72.0226 78.0049 -5.55112e-17
259 1 188.977 13.9329 -5.55112e-17
260 1 199.297 139.889 -5.55112e-17
261 1 185.943 111.037 -5.55112e-17
262 1 215.623 104.13 -5.55112e-17
263 1 6.5351 47.465 -5.55112e-17
264 1 8.52752 49.3022 -5.55112e-17
265 1 140.643 167.311 -5.55112e-17
266 1 139.903 69.1725 -5.55112e-17
267 1 151.192 144.692 -5.55112e-17
268 1 74.4098 49.3295 -5.55112e-17
269 1 9.31176 116.619 -5.55112e-17
270 1 15.2663 81.7034 -5.55112e-17
271 1 198.012 160.228 -5.55112e-17
272 1 210.216 184.627 -5.55112e-17
273 1 74.3203 140.75 -5.55112e-17
274 2 33.7843 154.426 -5.55112e-17
275 1 187.147 91.9851 -5.55112e-17
276 2 11.8099 1.06252 -5.55112e-17
277 2 171.88 51.4811 -5.55112e-17
278 1 152.477 208.313 -5.55112e-17
279 2 181.386 68.1587 -5.55112e-17
280 1 149.543 170.769 -5.55112e-17
281 1 159.032 175.76 -5.55112e-17
282 1 156.595 189.709 -5.55112e-17
283 1 44.4467 186.748 -5.55112e-17
284 1 113.434 141.94 -5.55112e-17
285 1 170.985 185.749 -5.55112e-17
286 2 93.7075 162.457 -5.55112e-17
287 1 207.81 110.112 -5.55112e-17
288 1 1.50877 3.1168 -5.55112e-17
289 1 50.9665 161.383 -5.55112e-17
290 1 38.6308 171.204 -5.55112e-17
291 1 122.042 57.2799 -5.55112e-17
292 2 76.8447 166.817 -5.55112e-17
293 2 10.982 108.543 -5.55112e-17
294 1 142.596 215.219 -5.55112e-17
295 1 157.043 73.0007 -5.55112e-17
296 1 35.1177 25.9585 -5.55112e-17
297 1 193.933 172.942 -5.55112e-17
298 1 47.8575 197.81 -5.55112e-17
299 1 165.812 133.403 -5.55112e-17
300 2 201.134 106.81 -5.55112e-17
301 1 159.416 61.3161 -5.55112e-17
302 1 115.249 134.441 -5.55112e-17
303 2 152.135 13.9182 -5.55112e-17
304 2 14.1044 47.778 -5.55112e-17
305 1 110.043 214.169 -5.55112e-17
306 1 149.813 73.9362 -5.55112e-17
307 1 15.264 136.071 -5.55112e-17
308 1 96.665 76.0948 -5.55112e-17
309 2 98.2806 172.036 -5.55112e-17
310 1 17.9241 32.8011 -5.55112e-17
311 1 31.3998 102.485 -5.55112e-17
312 1 117.499 194.103 -5.55112e-17
313 2 164.656 152.748 -5.55112e-17
314 1 154.062 199.065 -5.55112e-17
315 1 195.76 143.854 -5.55112e-17
316 1 152.976 21.373 -5.55112e-17
317 1 172.588 79.3373 -5.55112e-17
318 1 125.723 212.819 -5.55112e-17
319 1 91.4739 154.319 -5.55112e-17
320 1 172.948 203.132 -5.55112e-17
321 1 24.2477 73.3826 -5.55112e-17
322 1 41.4776 119.714 -5.55112e-17
323 1 71.6705 191.56 -5.55112e-17
324 1 144.729 84.0656 -5.55112e-17
325 1 117.313 136.145 -5.55112e-17
326 1 205.613 111.737 -5.55112e-17
327 2 169.985 86.0404 -5.55112e-17
328 1 95.8677 24.5155 -5.55112e-17
329 2 5.64182 60.1507 -5.55112e-17
330 1 191.513 83.1388 -5.55112e-17
331 1 123.545 12.975 -5.55112e-17
332 2 165.023 81.7448 -5.55112e-17
333 1 34.9029 147.041 -5.55112e-17
334 1 112.636 57.4042 -5.55112e-17
335 1 48.1782 21.5576 -5.55112e-17
336 1 2.40662 52.4592 -5.55112e-17
337 1 98.3164 163.417 -5.55112e-17
338 1 194.262 37.4885 -5.55112e-17
339 1 143.626 147.243 -5.55112e-17
340 1 204.156 55.684 -5.55112e-17
341 1 153.751 36.5901 -5.55112e-17
342 1 152.226 122.434 -5.55112e-17
343 1 93.3424 49.7915 -5.55112e-17
344 1 50.4922 60.6422 -5.55112e-17
345 1 61.022 118.669 -5.55112e-17
346 1 155.741 91.3078 -5.55112e-17
347 1 24.2282 98.2474 -5.55112e-17
348 1 159.378 204.818 -5.55112e-17
349 1 25.3821 90.3318 -5.55112e-17
350 2 108.733 151.397 -5.55112e-17
351 1 194.472 7.86775 -5.55112e-17
352 1 135.99 181.401 -5.55112e-17
353 1 66.4414 128.617 -5.55112e-17
354 1 164.414 157.138 -5.55112e-17
355 1 179.969 196.537 -5.55112e-17
356 1 193.995 158.883 -5.55112e-17
357 1 183.352 66.3245 -5.55112e-17
358 1 85.0796 210.339 -5.55112e-17
359 1 214.264 96.073 -5.55112e-17
360 1 195.687 177.036 -5.55112e-17
361 1 171.399 13.1071 -5.55112e-17
362 1 151.836 171.353 -5.55112e-17
363 1 210.26 215.613 -5.55112e-17
364 2 204.802 84.3898 -5.55112e-17
365 1 34.2531 67.8641 -5.55112e-17
366 1 169.092 156.63 -5.55112e-17
367 1 216.597 175.653 -5.55112e-17
368 1 35.1887 95.9596 -5.55112e-17
369 2 6.21119 152.348 -5.55112e-17
370 1 126.905 138.493 -5.55112e-17
371 1 122.606 217.878 -5.55112e-17
372 2 178.525 21.8876 -5.55112e-17
373 2 107.095 159.056 -5.55112e-17
374 1 127.273 3.57316 -5.55112e-17
375 1 130.866 212.009 -5.55112e-17
376 1 206.944 162.689 -5.55112e-17
377 1 157.949 123.966 -5.55112e-17
378 1 151.007 100.068 -5.55112e-17
379 1 29.4515 52.5964 -5.55112e-17
380 1 98.9119 189.146 -5.55112e-17
381 1 173.125 116.33 -5.55112e-17
382 1 66.1944 44.2828 -5.55112e-17
383 1 89.6926 135.886 -5.55112e-17
384 1 12.6769 128.115 -5.55112e-17
385 1 72.4106 100.383 -5.55112e-17
386 2 115.142 55.0349 -5.55112e-17
387 1 74.1372 204.25 -5.55112e-17
388 1 77.0952 164.075 -5.55112e-17
389 1 178.794 200.406 -5.55112e-17
390 2 165.628 218.526 -5.55112e-17
391 2 200.631 149.922 -5.55112e-17
392 1 100.781 47.8112 -5.55112e-17
393 1 56.8618 134.968 -5.55112e-17
394 1 109.143 107.487 -5.55112e-17
395 1 10.8277 86.1876 -5.55112e-17
396 1 127.319 30.5142 -5.55112e-17
397 1 81.9651 5.72876 -5.55112e-17
398 1 86.9187 10.5712 -5.55112e-17
399 1 44.4088 5.71534 -5.55112e-17
400 1 53.8079 125.191 -5.55112e-17
401 1 94.9282 0.616109 -5.55112e-17
402 2 214.607 55.8626 -5.55112e-17
403 1 39.8073 126.635 -5.55112e-17
404 1 214.026 60.9281 -5.55112e-17
405 1 116.442 150.892 -5.55112e-17
406 1 32.6696 55.6643 -5.55112e-17
407 2 213.774 20.4155 -5.55112e-17
408 1 117.525 169.729 -5.55112e-17
409 1 47.4297 172.97 -5.55112e-17
410 1 43.1211 58.6718 -5.55112e-17
411 1 195.644 42.7117 -5.55112e-17
412 1 211.56 60.0166 -5.55112e-17
413 1 69.9479 148.632 -5.55112e-17
414 1 34.3297 70.2944 -5.55112e-17
415 1 134.117 116.827 -5.55112e-17
416 1 43.3603 63.406 -5.55112e-17
417 1 195.163 110.382 -5.55112e-17
418 2 64.4684 39.131 -5.55112e-17
419 1 83.3417 47.6164 -5.55112e-17
420 2 185.388 11.3377 -5.55112e-17
421 1 144.969 105.023 -5.55112e-17
422 1 165.826 147.028 -5.55112e-17
423 2 23.3117 147.113 -5.55112e-17
424 1 138.025 63.5726 -5.55112e-17
425 1 128.375 26.0152 -5.55112e-17
426 1 189.907 214.413 -5.55112e-17
427 1 172.23 10.3582 -5.55112e-17
428 1 197.022 127.751 -5.55112e-17
429 1 188.27 37.4069 -5.55112e-17
430 1 198.907 22.3715 -5.55112e-17
431 1 36.5442 7.0183 -5.55112e-17
432 1 93.3199 35.8697 -5.55112e-17
433 1 170.645 216.745 -5.55112e-17
434 1 44.4571 151.453 -5.55112e-17
435 1 202.304 179.86 -5.55112e-17
436 1 89.7715 86.5486 -5.55112e-17
437 1 216.566 97.6189 -5.55112e-17
438 2 44.744 129.008 -5.55112e-17
439 1 34.0688 72.6073 -5.55112e-17
440 1 210.024 197.638 -5.55112e-17
441 1 119.492 99.0441 -5.55112e-17
442 1 116.036 101.494 -5.55112e-17
443 1 9.61568 131.936 -5.55112e-17
444 1 107.641 134.225 -5.55112e-17
445 1 124.444 40.0238 -5.55112e-17
446 1 103.961 195.731 -5.55112e-17
447 1 80.2919 39.1494 -5.55112e-17
448 1 76.8291 3.00002 -5.55112e-17
449 1 132.905 68.4587 -5.55112e-17
450 1 45.8698 93.5841 -5.55112e-17
451 1 162.995 91.8193 -5.55112e-17
452 1 82.1869 8.07144 -5.55112e-17
453 1 113.888 84.0307 -5.55112e-17
454 1 208.406 137.016 -5.55112e-17
455 1 197.222 193.565 -5.55112e-17
456 1 90.2425 211.594 -5.55112e-17
457 1 135.483 63.1231 -5.55112e-17
458 1 129.175 209.515 -5.55112e-17
459 1 105.846 85.8662 -5.55112e-17
460 1 104.633 61.0531 -5.55112e-17
461 1 71.8479 120.931 -5.55112e-17
462 1 161.983 62.6212 -5.55112e-17
463 1 132.87 207.061 -5.55112e-17
464 1 125.729 91.9779 -5.55112e-17
465 1 148.09 16.1166 -5.55112e-17
466 1 25.9282 20.3036 -5.55112e-17
467 1 25.8755 189.2 -5.55112e-17
468 1 191.986 71.1555 -5.55112e-17
469 1 111.407 18.6169 -5.55112e-17
470 1 77.1904 191.041 -5.55112e-17
471 1 190.997 159.518 -5.55112e-17
472 1 107.181 73.5768 -5.55112e-17
473 1 109.048 43.1977 -5.55112e-17
474 1 147.933 130.709 -5.55112e-17
475 1 53.698 151.954 -5.55112e-17
476 2 73.4179 59.627 -5.55112e-17
477 1 2.19253 201.171 -5.55112e-17
478 1 1.48514 106.358 -5.55112e-17
479 1 106.013 69.1023 -5.55112e-17
480 1 16.1119 76.7229 -5.55112e-17
481 1 62.8032 171.733 -5.55112e-17
482 1 127.961 218.547 -5.55112e-17
483 1 81.7542 200.696 -5.55112e-17
484 2 100.254 57.9107 -5.55112e-17
485 1 166.45 182.744 -5.55112e-17
486 1 25.5617 102.372 -5.55112e-17
487 1 72.3104 97.9997 -5.55112e-17
488 1 34.0401 119.817 -5.55112e-17
489 1 205.951 36.9694 -5.55112e-17
490 1 65.2683 13.0929 -5.55112e-17
491 1 167.861 94.5538 -5.55112e-17
492 1 97.4804 114.312 -5.55112e-17
493 1 106.866 142.005 -5.55112e-17
494 1 135.822 75.0241 -5.55112e-17
495 1 96.5423 69.6192 -5.55112e-17
496 2 172.129 189.978 -5.55112e-17
497 1 183.331 158.734 -5.55112e-17
498 1 26.5868 217.686 -5.55112e-17
499 2 99.4406 75.4025 -5.55112e-17
500 1 208.811 186.581 -5.55112e-17
501 2 18.9579 209.618 -5.55112e-17
502 2 91.1648 181.662 -5.55112e-17
503 1 101.074 132.848 -5.55112e-17
504 1 168.739 181.462 -5.55112e-17
505 1 50.306 69.8096 -5.55112e-17
506 1 96.2768 181.875 -5.55112e-17
507 1 26.367 181.752 -5.55112e-17
508 1 116.311 214.788 -5.55112e-17
509 2 7.56785 90.4598 -5.55112e-17
510 2 49.3725 192.927 -5.55112e-17
511 1 117.245 207.365 -5.55112e-17
512 2 32.3531 131.942 -5.55112e-17
513 1 24.7627 68.0884 -5.55112e-17
514 1 194.582 32.7174 -5.55112e-17
515 1 122.837 71.9419 -5.55112e-17
516 1 180.51 173.38 -5.55112e-17
517 1 142.089 179.881 -5.55112e-17
518 2 177.26 125.365 -5.55112e-17
519 1 65.4003 36.5417 -5.55112e-17
520 2 192.246 27.9365 -5.55112e-17
521 1 216.623 51.3433 -5.55112e-17
522 1 23.2371 128.629 -5.55112e-17
523 1 49.3158 4.84926 -5.55112e-17
524 1 211.477 157.04 -5.55112e-17
525 1 29.8073 175.139 -5.55112e-17
526 1 178.497 40.3346 -5.55112e-17
527 1 52.3632 42.8924 -5.55112e-17
528 1 28.5371 112.349 -5.55112e-17
529 1 58.3434 152.372 -5.55112e-17
530 1 95.855 87.3253 -5.55112e-17
531 1 97.5401 10.4067 -5.55112e-17
532 1 49.8578 212.323 -5.55112e-17
533 1 117.642 86.4102 -5.55112e-17
534 1 165.408 215.925 -5.55112e-17
535 1 134.444 208.917 -5.55112e-17
536 1 121.743 26.8002 -5.55112e-17
537 1 67.686 214.677 -5.55112e-17
538 1 133.54 211.222 -5.55112e-17
539 1 218.347 37.5609 -5.55112e-17
540 1 135.891 199.776 -5.55112e-17
541 1 180.938 213.213 -5.55112e-17
542 1 138.06 102.769 -5.55112e-17
543 1 153.576 27.907 -5.55112e-17
544 1 194.545 192.646 -5.55112e-17
545 1 1.80213 171.084 -5.55112e-17
546 1 196.539 114.742 -5.55112e-17
547 1 39.9459 4.44472 -5.55112e-17
548 1 217.33 205.135 -5.55112e-17
549 1 26.659 72.3087 -5.55112e-17
550 2 196.918 73.5834 -5.55112e-17
551 2 45.2085 96.4847 -5.55112e-17
552 2 119.275 28.0588 -5.55112e-17
553 1 131.227 49.3104 -5.55112e-17
554 1 15.3605 69.2183 -5.55112e-17
555 2 215.381 77.2583 -5.55112e-17
556 1 179.183 107.007 -5.55112e-17
557 1 18.5887 178.685 -5.55112e-17
558 1 146.587 177.692 -5.55112e-17
559 1 32.0658 42.0803 -5.55112e-17
560 1 188.527 201.226 -5.55112e-17
561 1 51.9044 191.331 -5.55112e-17
562 1 4.55473 201.07 -5.55112e-17
563 2 182.569 175.632 -5.55112e-17
564 1 16.7445 195.514 -5.55112e-17
565 1 173.736 12.6327 -5.55112e-17
566 1 209.012 182.191 -5.55112e-17
567 1 146.27 48.6355 -5.55112e-17
568 1 213.411 34.7763 -5.55112e-17
569 1 72.416 216.889 -5.55112e-17
570 1 100.76 86.9073 -5.55112e-17
571 1 183.565 104.103 -5.55112e-17
572 1 134.824 56.2524 -5.55112e-17
573 1 178.892 104.571 -5.55112e-17
574 1 175.359 131.365 -5.55112e-17
575 1 207.023 60.5611 -5.55112e-17
576 1 177.258 78.4857 -5.55112e-17
577 1 134.282 18.4924 -5.55112e-17
578 1 174.585 5.03335 -5.55112e-17
579 1 34.1673 30.6791 -5.55112e-17
580 1 104.087 84.1666 -5.55112e-17
581 1 209.341 158.518 -5.55112e-17
582 1 117.675 12.6081 -5.55112e-17
583 1 149.77 90.5031 -5.55112e-17
584 2 19.214 35.6557 -5.55112e-17
585 1 211.086 146.483 -5.55112e-17
586 1 105.47 147.693 -5.55112e-17
587 1 128.807 180.509 -5.55112e-17
588 1 1.4851 127.323 -5.55112e-17
589 1 147.67 165.828 -5.55112e-17
590 1 97.8733 59.6135 -5.55112e-17
591 1 119.325 138.027 -5.55112e-17
592 1 19.4912 38.7346 -5.55112e-17
593 1 56.1707 207.578 -5.55112e-17
594 1 206.765 173.051 -5.55112e-17
595 1 35.7279 138.472 -5.55112e-17
596 1 117.691 198.4 -5.55112e-17
597 2 52.1393 214.728 -5.55112e-17
598 1 40.5571 33.9623 -5.55112e-17
599 1 33.546 199.373 -5.55112e-17
600 1 9.34911 218.471 -5.55112e-17
601 1 70.4523 178.354 -5.55112e-17
602 1 163.986 27.7167 -5.55112e-17
603 1 165.649 95.8554 -5.55112e-17
604 1 65.1685 184.05 -5.55112e-17
605 2 83.5438 148.5 -5.55112e-17
606 1 163.843 178.355 -5.55112e-17
607 2 2.74424 165.182 -5.55112e-17
608 1 120.892 132.9 -5.55112e-17
609 1 188.254 110.231 -5.55112e-17
610 1 130.004 114.848 -5.55112e-17
611 1 104.713 157.45 -5.55112e-17
612 1 57.3011 205.462 -5.55112e-17
613 1 125.794 154.062 -5.55112e-17
614 2 208.628 209.547 -5.55112e-17
615 1 93.0512 31.4671 -5.55112e-17
616 1 172.842 100.169 -5.55112e-17
617 1 89.8512 63.1293 -5.55112e-17
618 1 140.555 181.965 -5.55112e-17
619 1 138.964 18.8775 -5.55112e-17
620 1 77.221 0.472462 -5.55112e-17
621 1 160.165 24.4885 -5.55112e-17
622 1 101.009 207.093 -5.55112e-17
623 1 173.53 177.233 -5.55112e-17
624 1 16.7399 197.841 -5.55112e-17
625 1 138.311 163.391 -5.55112e-17
626 1 79.6988 215.65 -5.55112e-17
627 1 82.9782 180.821 -5.55112e-17
628 1 50.2589 58.0386 -5.55112e-17
629 1 148.59 26.3391 -5.55112e-17
630 2 141.57 110.849 -5.55112e-17
631 1 206.668 100.527 -5.55112e-17
632 1 183.158 212.692 -5.55112e-17
633 1 211.555 213.449 -5.55112e-17
634 1 179.318 127.508 -5.55112e-17
635 1 96.8012 161.369 -5.55112e-17
636 1 171.276 170.142 -5.55112e-17
637 1 172.716 32.6577 -5.55112e-17
638 1 29.4014 139.539 -5.55112e-17
639 2 52.7674 62.5083 -5.55112e-17
640 1 93.3411 217.345 -5.55112e-17
641 1 170.807 30.9304 -5.55112e-17
642 1 80.8774 26.6169 -5.55112e-17
643 2 145.799 1.18718 -5.55112e-17
644 1 32.6681 25.7765 -5.55112e-17
645 1 4.49581 162.71 -5.55112e-17
646 2 19.0494 175.788 -5.55112e-17
647 1 210.326 1.93522 -5.55112e-17
648 1 68.5407 12.7659 -5.55112e-17
649 2 116.002 181.94 -5.55112e-17
650 1 158.645 33.3471 -5.55112e-17
651 1 39.4078 13.6452 -5.55112e-17
652 1 167.452 131.156 -5.55112e-17
653 1 18.4401 112.005 -5.55112e-17
654 1 202.409 175.324 -5.55112e-17
655 2 171.668 108.476 -5.55112e-17
656 1 58.115 13.8709 -5.55112e-17
657 2 141.845 6.0763 -5.55112e-17
658 1 23.7944 107.757 -5.55112e-17
659 2 148.248 104.569 -5.55112e-17
660 1 84.152 164.995 -5.55112e-17
661 1 155.789 100.157 -5.55112e-17
662 1 111.134 142.705 -5.55112e-17
663 1 157.024 75.9633 -5.55112e-17
664 1 102.908 186.672 -5.55112e-17
665 1 114.199 116.57 -5.55112e-17
666 2 113.062 27.2133 -5.55112e-17
667 1 87.794 172.441 -5.55112e-17
668 2 144.663 149.887 -5.55112e-17
669 1 121.555 59.7586 -5.55112e-17
670 1 73.5462 71.8544 -5.55112e-17
671 2 56.9027 193.286 -5.55112e-17
672 1 186.069 100.08 -5.55112e-17
673 1 206.252 103.716 -5.55112e-17
674 1 217.849 112.868 -5.55112e-17
675 1 190.635 195.513 -5.55112e-17
676 1 0.408229 129.873 -5.55112e-17
677 1 147.691 135.438 -5.55112e-17
678 1 142.467 161.861 -5.55112e-17
679 2 129.947 173.544 -5.55112e-17
680 1 70.8516 35.7594 -5.55112e-17
681 2 1.05352 18.3509 -5.55112e-17
682 1 49.2135 207.402 -5.55112e-17
683 1 44.876 206.997 -5.55112e-17
684 1 163.013 213.57 -5.55112e-17
685 1 142.624 62.3184 -5.55112e-17
686 1 83.2292 125.779 -5.55112e-17
687 1 138.692 191.252 -5.55112e-17
688 1 181.703 80.5144 -5.55112e-17
689 2 37.4173 94.211 -5.55112e-17
690 1 146.695 128.424 -5.55112e-17
691 1 29.6199 166.249 -5.55112e-17
692 1 106.842 189.734 -5.55112e-17
693 1 16.0805 35.1166 -5.55112e-17
694 1 59.6344 175.043 -5.55112e-17
695 1 180.136 216.311 -5.55112e-17
696 1 112.645 135.283 -5.55112e-17
697 1 177.461 95.4157 -5.55112e-17
698 1 62.124 111.372 -5.55112e-17
699 1 207.838 67.1333 -5.55112e-17
700 1 216.806 130.635 -5.55112e-17
701 1 34.6672 133.47 -5.55112e-17
702 1 189.112 137.313 -5.55112e-17
703 2 10.0354 168.438 -5.55112e-17
704 1 135.057 202.125 -5.55112e-17
705 2 89.4834 186.711 -5.55112e-17
706 1 23.9105 123.568 -5.55112e-17
707 1 121.494 92.0408 -5.55112e-17
708 1 43.9942 119.563 -5.55112e-17
709 1 9.64808 80.5332 -5.55112e-17
710 1 52.952 97.964 -5.55112e-17
711 1 54.8441 197.842 -5.55112e-17
712 1 192.587 42.8723 -5.55112e-17
713 1 99.6894 82.1739 -5.55112e-17
714 1 136.633 65.5652 -5.55112e-17
715 1 157.902 196.361 -5.55112e-17
716 1 87 198.821 -5.55112e-17
717 1 76.8188 147.014 -5.55112e-17
718 1 211.42 105.794 -5.55112e-17
719 2 79.3245 76.4261 -5.55112e-17
720 1 61.8374 135.603 -5.55112e-17
721 1 173.778 133.382 -5.55112e-17
722 1 50.5429 96.5082 -5.55112e-17
723 2 50.6404 34.6717 -5.55112e-17
724 1 74.9122 159.146 -5.55112e-17
725 1 97.4402 57.215 -5.55112e-17
726 1 182.764 92.1254 -5.55112e-17
727 1 117.029 172.435 -5.55112e-17
728 2 179.608 58.7577 -5.55112e-17
729 1 207.828 179.744 -5.55112e-17
730 1 45.3054 171.039 -5.55112e-17
731 1 167.427 34.3333 -5.55112e-17
732 1 127.072 77.2543 -5.55112e-17
733 1 175.7 28.2489 -5.55112e-17
734 1 19.8462 80.0883 -5.55112e-17
735 1 179.334 218.938 -5.55112e-17
736 2 200.788 51.0455 -5.55112e-17
737 1 112.852 132.547 -5.55112e-17
738 1 185.931 175.307 -5.55112e-17
739 1 191.641 185.053 -5.55112e-17
740 1 67.3769 3.2307 -5.55112e-17
741 2 7.06135 183.872 -5.55112e-17
742 1 214.968 43.1744 -5.55112e-17
743 1 146.509 204.352 -5.55112e-17
744 2 178.811 45.3795 -5.55112e-17
745 1 81.6106 80.9091 -5.55112e-17
746 1 102.332 218.173 -5.55112e-17
747 2 6.95545 24.1004 -5.55112e-17
748 1 150.777 16.5005 -5.55112e-17
749 1 77.9208 211.697 -5.55112e-17
750 1 12.6671 156.925 -5.55112e-17
751 1 65.1731 85.3679 -5.55112e-17
752 1 166.91 179.714 -5.55112e-17
753 1 118.584 162.89 -5.55112e-17
754 1 44.8445 35.7209 -5.55112e-17
755 1 214.791 83.4567 -5.55112e-17
756 2 120.155 5.7242 -5.55112e-17
757 1 216.122 170.978 -5.55112e-17
758 1 27.1854 60.8716 -5.55112e-17
759 1 147.257 163.149 -5.55112e-17
760 1 129.231 122.399 -5.55112e-17
761 1 71.7815 80.7422 -5.55112e-17
762 1 196.691 63.1845 -5.55112e-17
763 1 204.728 62.5605 -5.55112e-17
764 2 103.104 205.087 -5.55112e-17
765 1 153.043 2.16838 -5.55112e-17
766 1 16.6275 98.0175 -5.55112e-17
767 1 37.2802 36.9515 -5.55112e-17
768 1 163.596 7.12539 -5.55112e-17
769 1 114.441 111.041 -5.55112e-17
770 2 33.0173 122.604 -5.55112e-17
771 1 24.3937 174.945 -5.55112e-17
772 1 78.2966 125.709 -5.55112e-17
773 1 101.486 84.1496 -5.55112e-17
774 1 186.129 108.348 -5.55112e-17
775 1 152.862 201.328 -5.55112e-17
776 1 88.601 56.038 -5.55112e-17
777 1 139.258 11.5689 -5.55112e-17
778 1 82.7707 43.2659 -5.55112e-17
779 1 13.0996 116.823 -5.55112e-17
780 1 165.98 53.3778 -5.55112e-17
781 1 186.982 122.054 -5.55112e-17
782 1 8.25791 40.3183 -5.55112e-17
783 1 96.194 67.0135 -5.55112e-17
784 2 130.678 89.5228 -5.55112e-17
785 1 101.56 194.96 -5.55112e-17
786 1 69.7275 167.619 -5.55112e-17
787 1 52.0544 200.94 -5.55112e-17
788 1 174.052 71.6125 -5.55112e-17
789 2 9.66086 83.4758 -5.55112e-17
790 1 119.394 113.614 -5.55112e-17
791 2 154.488 120.517 -5.55112e-17
792 2 28.5373 101.629 -5.55112e-17
793 2 146.523 138.319 -5.55112e-17
794 1 46.5099 150.13 -5.55112e-17
795 1 96.0835 164.117 -5.55112e-17
796 1 114.407 139.539 -5.55112e-17
797 1 114.563 189.109 -5.55112e-17
798 2 37.7017 76.4727 -5.55112e-17
799 2 20.3261 167.902 -5.55112e-17
800 2 167.004 66.0208 -5.55112e-17
801 1 144.162 159.505 -5.55112e-17
802 1 115.739 75.6657 -5.55112e-17
803 1 189.544 54.0839 -5.55112e-17
804 2 103.892 171.621 -5.55112e-17
805 1 117.671 88.9035 -5.55112e-17
806 1 95.0559 191.501 -5.55112e-17
807 2 202.375 209.718 -5.55112e-17
808 1 105.351 111.036 -5.55112e-17
809 2 131.493 0.247592 -5.55112e-17
810 1 140.746 82.9512 -5.55112e-17
811 1 7.26315 200.2 -5.55112e-17
812 1 216.101 185.282 -5.55112e-17
813 2 53.6799 208.872 -5.55112e-17
814 1 63.0815 113.793 -5.55112e-17
815 1 0.101791 199.357 -5.55112e-17
816 1 17.1881 18.6823 -5.55112e-17
817 1 5.8159 129.47 -5.55112e-17
818 1 166.747 158.364 -5.55112e-17
819 1 98.9151 143.902 -5.55112e-17
820 1 92.9141 42.8757 -5.55112e-17
821 1 64.4065 123.239 -5.55112e-17
822 2 31.6741 182.072 -5.55112e-17
823 2 14.1873 119.42 -5.55112e-17
824 1 112.028 111.581 -5.55112e-17
825 1 69.9574 38.1165 -5.55112e-17
826 1 178.583 134.545 -5.55112e-17
827 1 31.6572 189.588 -5.55112e-17
828 1 72.7418 38.0024 -5.55112e-17
829 1 57.5541 74.122 -5.55112e-17
830 1 18.1324 206.635 -5.55112e-17
831 1 191.525 173.785 -5.55112e-17
832 1 140.344 1.1085 -5.55112e-17
833 1 13.215 67.9985 -5.55112e-17
834 1 95.8517 30.9115 -5.55112e-17
835 1 29.2934 6.1052 -5.55112e-17
836 1 33.1127 100.415 -5.55112e-17
837 1 181.016 14.168 -5.55112e-17
838 1 207.566 197.149 -5.55112e-17
839 2 5.20187 159.889 -5.55112e-17
840 1 88.5591 111.088 -5.55112e-17
841 2 93.7099 77.328 -5.55112e-17
842 1 169.624 209.009 -5.55112e-17
843 2 126.404 182.499 -5.55112e-17
844 1 192.904 194.423 -5.55112e-17
845 1 64.885 200.106 -5.55112e-17
846 1 84.5662 88.4626 -5.55112e-17
847 1 198.409 167.258 -5.55112e-17
848 1 159.25 66.5246 -5.55112e-17
849 1 107.821 95.007 -5.55112e-17
850 1 102.235 139.542 -5.55112e-17
851 1 64.2563 130.088 -5.55112e-17
852 1 47.965 73.9317 -5.55112e-17
853 1 177.996 132.09 -5.55112e-17
854 1 55.9825 121.499 -5.55112e-17
855 1 195.387 26.1269 -5.55112e-17
856 1 94.1388 207.608 -5.55112e-17