ITEM: TIMESTEP
0
ITEM: NUMBER OF ATOMS
7200
ITEM: BOX BOUNDS xy xz yz pp pp pp
0.0000000000000000e+00 2.1900000000000000e+02 0.0000000000000000e+00
0.0000000000000000e+00 2.1900000000000000e+02 0.0000000000000000e+00
-3.6499999999999999e-01 3.6499999999999999e-01 0.0000000000000000e+00
ITEM: ATOMS id type x y z
1 1 28.636 29.7296 -5.55112e-17
2 1 194.357 120.222 -5.55112e-17
3 1 28.5193 36.968 -5.55112e-17
4 1 52.7083 183.454 -5.55112e-17
5 1 200.355 100.355 -5.55112e-17
6 1 8.12771 166.706 -5.55112e-17
7 1 70.5141 183.453 -5.55112e-17
8 2 84.6903 88.3705 -5.55112e-17
9 1 115.709 3.814 -5.55112e-17
10 2 120.747 97.7606 -5.55112e-17
11 1 138.986 208.109 -5.55112e-17
12 1 1.25852 154.44 -5.55112e-17
13 2 171.478 175.463 -5.55112e-17
14 1 188.298 31.58 -5.55112e-17
15 1 181.789 74.3986 -5.55112e-17
16 2 172.71 137.74 -5.55112e-17
17 1 165.23 69.8974 -5.55112e-17
18 2 8.94693 67.5632 -5.55112e-17
19 1 193.038 61.5974 -5.55112e-17
20 1 24.7881 196.195 -5.55112e-17
21 1 75.9536 218.162 -5.55112e-17
22 2 10.9476 207.697 -5.55112e-17
23 2 107.009 86.0302 -5.55112e-17
24 1 37.7649 160.003 -5.55112e-17
25 1 69.1871 97.8874 -5.55112e-17
26 2 19.9597 173.839 -5.55112e-17
27 1 203.123 217.214 -5.55112e-17
28 2 133.967 146.852 -5.55112e-17
29 1 191.721 92.6403 -5.55112e-17
30 1 125.782 131.362 -5.55112e-17
31 1 27.4105 175.895 -5.55112e-17
32 1 96.808 56.4456 -5.55112e-17
33 1 71.3039 198.393 -5.55112e-17
34 1 109.833 87.3422 -5.55112e-17
35 1 190.576 25.099 -5.55112e-17
36 1 67.1591 99.5129 -5.55112e-17
37 2 36.9223 24.7298 -5.55112e-17
38 1 32.7594 124.899 -5.55112e-17
39 1 167.853 112.131 -5.55112e-17
40 1 33.2494 127.379 -5.55112e-17
41 1 86.937 112.615 -5.55112e-17
42 1 188.982 100.552 -5.55112e-17
43 1 160.078 27.9097 -5.55112e-17
44 1 16.5175 147.355 -5.55112e-17
45 1 59.4799 135.417 -5.55112e-17
46 1 110.576 208.447 -5.55112e-17
47 1 72.7175 90.0854 -5.55112e-17
48 2 65.5875 140.565 -5.55112e-17
49 1 177.573 137.132 -5.55112e-17
50 1 87.2449 96.6801 -5.55112e-17
51 1 141.434 84.8414 -5.55112e-17
52 1 68.2356 64.6924 -5.55112e-17
53 1 0.499091 144.084 -5.55112e-17
54 1 216.144 119.9 -5.55112e-17
55 1 81.6355 68.8118 -5.55112e-17
56 1 152.597 125.789 -5.55112e-17
57 2 186.71 166.724 -5.55112e-17
58 1 1.74049 24.4214 -5.55112e-17
59 1 68.304 164.38 -5.55112e-17
60 2 103.963 15.4907 -5.55112e-17
61 2 11.2262 188.383 -5.55112e-17
62 1 38.4853 54.7705 -5.55112e-17
63 1 75.8449 199.99 -5.55112e-17
64 1 59.2458 181.061 -5.55112e-17
65 1 104.842 187.104 -5.55112e-17
66 1 6.59562 10.2661 -5.55112e-17
67 1 32.0031 188.16 -5.55112e-17
68 1 104.89 155.958 -5.55112e-17
69 1 189.421 197.044 -5.55112e-17
70 1 106.455 111.719 -5.55112e-17
71 1 128.728 194.888 -5.55112e-17
72 1 7.25543 184.545 -5.55112e-17
73 1 63.7954 163.009 -5.55112e-17
74 1 168.805 9.98709 -5.55112e-17
75 2 30.1583 24.0964 -5.55112e-17
76 1 130.603 15.5376 -5.55112e-17
77 1 188.531 76.0439 -5.55112e-17
78 1 62.0623 158.156 -5.55112e-17
79 2 165.211 93.6901 -5.55112e-17
80 1 180.729 207.266 -5.55112e-17
81 1 203.289 104.464 -5.55112e-17
82 1 178.596 20.8135 -5.55112e-17
83 2 128.536 168.836 -5.55112e-17
84 1 185.795 58.8942 -5.55112e-17
85 1 72.8416 74.5127 -5.55112e-17
86 1 123.013 131.112 -5.55112e-17
87 1 71.6175 113.351 -5.55112e-17
88 1 99.0662 63.1679 -5.55112e-17
89 2 187.88 26.5807 -5.55112e-17
90 2 24.0084 3.08342 -5.55112e-17
91 1 144.804 132.659 -5.55112e-17
92 2 161.615 48.201 -5.55112e-17
93 1 151.927 3.56041 -5.55112e-17
94 2 92.6029 24.0186 -5.55112e-17
95 1 159.604 63.7265 -5.55112e-17
96 1 209.897 194.589 -5.55112e-17
97 1 2.16326 212.371 -5.55112e-17
98 1 57.3205 164.617 -5.55112e-17
99 1 209.785 54.1809 -5.55112e-17
100 1 94.6523 51.9169 -5.55112e-17
101 1 14.1433 23.319 -5.55112e-17
102 1 61.7001 155.559 -5.55112e-17
103 1 151.236 150.662 -5.55112e-17
104 1 65.6409 107.961 -5.55112e-17
105 1 21.978 144.264 -5.55112e-17
106 1 151.575 147.648 -5.55112e-17
107 2 55.8809 4.96976 -5.55112e-17
108 1 158.11 201.005 -5.55112e-17
109 1 35.5104 38.1152 -5.55112e-17
110 1 116.677 156.875 -5.55112e-17
111 1 26.3452 217.934 -5.55112e-17
112 1 118.316 132.164 -5.55112e-17
113 1 65.2251 53.1404 -5.55112e-17
114 1 62.0677 200.884 -5.55112e-17
115 1 23.2997 146.38 -5.55112e-17
116 2 109.876 81.4691 -5.55112e-17
117 1 46.0541 140.753 -5.55112e-17
118 1 168.279 108.59 -5.55112e-17
119 2 163.891 119.279 -5.55112e-17
120 1 192.868 7.64746 -5.55112e-17
121 1 42.0655 130.775 -5.55112e-17
122 1 57.993 140.424 -5.55112e-17
123 1 136.216 23.2739 -5.55112e-17
124 1 104.302 145.284 -5.55112e-17
125 1 142.808 122.123 -5.55112e-17
126 1 66.9887 133.487 -5.55112e-17
127 1 20.0367 7.50193 -5.55112e-17
128 1 147.513 174.359 -5.55112e-17
129 1 11.8578 9.30349 -5.55112e-17
130 1 113.313 48.3069 -5.55112e-17
131 1 171.181 90.1561 -5.55112e-17
132 2 43.6402 67.9191 -5.55112e-17
133 1 92.0718 7.98805 -5.55112e-17
134 1 127.78 141.682 -5.55112e-17
135 1 203.333 146.359 -5.55112e-17
136 1 80.1214 132.505 -5.55112e-17
137 1 185.878 152.238 -5.55112e-17
138 1 104.216 57.4158 -5.55112e-17
139 1 123.971 197.432 -5.55112e-17
140 2 204.422 204.193 -5.55112e-17
141 1 69.2955 94.9044 -5.55112e-17
142 2 24.8722 133.171 -5.55112e-17
143 1 123.928 136.063 -5.55112e-17
144 2 49.0089 119.768 -5.55112e-17
145 1 167.635 218.593 -5.55112e-17
146 1 31.0106 141.013 -5.55112e-17
147 1 59.3125 47.6033 -5.55112e-17
148 1 137.171 82.0343 -5.55112e-17
149 1 207.016 203.716 -5.55112e-17
150 1 208.121 159.84 -5.55112e-17
151 1 55.7766 195.187 -5.55112e-17
152 1 140.479 123.892 -5.55112e-17
153 2 85.6582 212.333 -5.55112e-17
154 1 58.2766 0.398231 -5.55112e-17
155 1 191.957 196.949 -5.55112e-17
156 2 190.795 132.852 -5.55112e-17
157 1 75.1323 88.9936 -5.55112e-17
158 1 1.20869 86.136 -5.55112e-17
159 1 139.487 128.287 -5.55112e-17
160 1 86.798 65.348 -5.55112e-17
161 1 214.799 39.7188 -5.55112e-17
162 1 113.683 120.765 -5.55112e-17
163 1 52.479 63.0256 -5.55112e-17
164 1 148.056 98.9298 -5.55112e-17
165 1 212.702 215.962 -5.55112e-17
166 2 138.214 69.2479 -5.55112e-17
167 1 84.3017 146.93 -5.55112e-17
168 1 54.9494 163.974 -5.55112e-17
169 1 50.4604 24.6703 -5.55112e-17
170 1 152.289 98.0872 -5.55112e-17
171 1 188.091 81.073 -5.55112e-17
172 1 97.199 105.777 -5.55112e-17
173 1 121.698 67.6825 -5.55112e-17
174 1 15.6636 66.1414 -5.55112e-17
175 2 208.991 62.2327 -5.55112e-17
176 1 96.9099 21.248 -5.55112e-17
177 2 147.432 163.051 -5.55112e-17
178 1 46.1737 5.23619 -5.55112e-17
179 1 158.912 97.0463 -5.55112e-17
180 1 162.768 153.658 -5.55112e-17
181 1 116.641 154.263 -5.55112e-17
182 2 188.871 17.5514 -5.55112e-17
183 1 27.2755 186.772 -5.55112e-17
184 1 147.017 197.83 -5.55112e-17
185 2 135.009 42.7275 -5.55112e-17
186 2 147.897 69.1172 -5.55112e-17
187 1 102.68 137.059 -5.55112e-17
188 1 20.1485 98.4305 -5.55112e-17
189 1 68.9038 116.298 -5.55112e-17
190 2 200.202 73.1487 -5.55112e-17
191 1 28.105 154.764 -5.55112e-17
192 2 64.1452 110.499 -5.55112e-17
193 2 69.6745 14.8104 -5.55112e-17
194 1 55.404 178.756 -5.55112e-17
195 1 135.583 90.0193 -5.55112e-17
196 1 80.8178 190.136 -5.55112e-17
197 1 134.276 114.211 -5.55112e-17
198 2 206.623 186.068 -5.55112e-17
199 1 82.5621 32.6179 -5.55112e-17
200 1 84.8799 217.034 -5.55112e-17
201 2 141.101 17.0907 -5.55112e-17
202 1 162.086 92.972 -5.55112e-17
203 1 113.327 96.992 -5.55112e-17
204 1 44.4539 14.8368 -5.55112e-17
205 2 217.764 146.311 -5.55112e-17
206 1 67.8056 36.1065 -5.55112e-17
207 1 137.748 176.301 -5.55112e-17
208 1 175.869 199.999 -5.55112e-17
209 1 131.267 117.136 -5.55112e-17
210 1 163.459 121.934 -5.55112e-17
211 2 8.36331 56.4014 -5.55112e-17
212 1 142.354 55.3324 -5.55112e-17
213 1 37.1785 75.801 -5.55112e-17
214 1 194.814 23.4806 -5.55112e-17
215 1 215.921 4.77762 -5.55112e-17
216 1 186.395 38.3445 -5.55112e-17
217 1 98.6718 192.279 -5.55112e-17
218 2 95.8481 215.517 -5.55112e-17
219 1 68.5759 60.5962 -5.55112e-17
220 2 138.368 91.3946 -5.55112e-17
221 1 187.561 14.665 -5.55112e-17
222 1 204.906 25.3361 -5.55112e-17
223 1 92.7459 215.545 -5.55112e-17
224 2 166.584 32.8205 -5.55112e-17
225 1 72.7755 154.104 -5.55112e-17
226 1 152.004 90.485 -5.55112e-17
227 2 156.629 53.97 -5.55112e-17
228 1 125.968 152.675 -5.55112e-17
229 1 171.147 83.2493 -5.55112e-17
230 1 208.033 110.725 -5.55112e-17
231 1 100.026 139.281 -5.55112e-17
232 1 204.397 40.0242 -5.55112e-17
233 1 32.5802 31.3044 -5.55112e-17
234 1 41.2128 79.704 -5.55112e-17
235 1 82.321 65.0749 -5.55112e-17
236 1 124.178 101.874 -5.55112e-17
237 1 75.1644 60.2723 -5.55112e-17
238 1 75.1196 213.645 -5.55112e-17
239 2 40.8798 104.366 -5.55112e-17
240 1 177.241 29.4278 -5.55112e-17
241 2 23.3218 141.347 -5.55112e-17
242 2 71.3987 216.699 -5.55112e-17
243 2 19.9313 202.141 -5.55112e-17
244 1 180.671 39.9925 -5.55112e-17
245 1 105.136 150.914 -5.55112e-17
246 1 111.127 193.667 -5.55112e-17
247 1 13.4138 167.11 -5.55112e-17
248 1 91.6343 185.637 -5.55112e-17
249 1 203.678 47.4511 -5.55112e-17
250 2 76.2896 43.5407 -5.55112e-17
251 1 150.941 115.143 -5.55112e-17
252 1 115.912 18.5561 -5.55112e-17
253 1 30.9753 169.482 -5.55112e-17
254 2 75.6945 168.713 -5.55112e-17
255 1 116.368 178.372 -5.55112e-17
256 1 127.223 198.657 -5.55112e-17
257 1 133.566 11.64 -5.55112e-17
258 2 209.162 51.5515 -5.55112e-17
259 1 38.3683 213.923 -5.55112e-17
260 1 8.61012 48.6227 -5.55112e-17
261 1 121.134 158.17 -5.55112e-17
262 1 115.406 76.2693 -5.55112e-17
263 1 60.1384 2.5083 -5.55112e-17
264 1 185.905 19.2036 -5.55112e-17
265 1 217.432 72.9075 -5.55112e-17
266 1 118.126 84.6475 -5.55112e-17
267 1 201.357 116.43 -5.55112e-17
268 1 112.087 172.686 -5.55112e-17
269 1 58.7776 29.435 -5.55112e-17
270 1 83.27 45.4346 -5.55112e-17
271 1 0.362508 98.9904 -5.55112e-17
272 1 180.683 214.035 -5.55112e-17
273 1 168.001 164.362 -5.55112e-17
274 2 29.5225 84.8786 -5.55112e-17
275 1 140.984 111.658 -5.55112e-17
276 2 163.994 66.6356 -5.55112e-17
277 2 201.067 187.079 -5.55112e-17
278 1 177.432 0.272262 -5.55112e-17
279 2 192.904 215.781 -5.55112e-17
280 1 113.172 7.55329 -5.55112e-17
281 1 50.468 42.5564 -5.55112e-17
282 1 6.10761 81.5807 -5.55112e-17
283 1 148.683 189.768 -5.55112e-17
284 1 203.857 116.719 -5.55112e-17
285 1 21.7823 132.558 -5.55112e-17
286 2 38.1109 62.0879 -5.55112e-17
287 1 84.8805 95.5378 -5.55112e-17
288 1 218.336 203.602 -5.55112e-17
289 1 187.18 198.687 -5.55112e-17
290 1 135.708 156.615 -5.55112e-17
291 1 92.6023 148.928 -5.55112e-17
292 2 153.773 118.897 -5.55112e-17
293 2 41.8893 115.986 -5.55112e-17
294 1 90.1465 22.7165 -5.55112e-17
295 1 78.8191 149.66 -5.55112e-17
296 1 137.001 197.458 -5.55112e-17
297 1 175.368 63.4183 -5.55112e-17
298 1 196.372 184.663 -5.55112e-17
299 1 196.66 190.363 -5.55112e-17
300 2 196.185 61.2089 -5.55112e-17
301 1 126.119 35.6803 -5.55112e-17
302 1 73.1285 58.6238 -5.55112e-17
303 2 165.88 10.3203 -5.55112e-17
304 2 131.177 70.8788 -5.55112e-17
305 1 84.0501 204.559 -5.55112e-17
306 1 147.065 20.3562 -5.55112e-17
307 1 119.982 94.9532 -5.55112e-17
308 1 151.799 87.5224 -5.55112e-17
309 2 92.299 143.9 -5.55112e-17
310 1 185.319 11.1343 -5.55112e-17
311 1 164.075 204.323 -5.55112e-17
312 1 43.9443 118.256 -5.55112e-17
313 2 19.3289 33.3992 -5.55112e-17
314 1 208.525 183.886 -5.55112e-17
315 1 127.359 118.177 -5.55112e-17
316 1 132.884 176.107 -5.55112e-17
317 1 116.124 66.9504 -5.55112e-17
318 1 127.977 33.8974 -5.55112e-17
319 1 116.879 160.895 -5.55112e-17
320 1 180.27 101.035 -5.55112e-17
321 1 104.118 207.043 -5.55112e-17
322 1 59.3803 86.9151 -5.55112e-17
323 1 79.4001 178.805 -5.55112e-17
324 1 210.867 136.332 -5.55112e-17
325 1 56.742 171.751 -5.55112e-17
326 1 8.05567 0.841859 -5.55112e-17
327 2 160.786 37.867 -5.55112e-17
328 1 73.5065 107.058 -5.55112e-17
329 2 44.3939 63.0597 -5.55112e-17
330 1 30.388 167.013 -5.55112e-17
331 1 114.338 11.6388 -5.55112e-17
332 2 93.0292 115.604 -5.55112e-17
333 1 167.97 209.845 -5.55112e-17
334 1 135.496 3.91425 -5.55112e-17
335 1 151.932 75.2605 -5.55112e-17
336 1 152.894 168.895 -5.55112e-17
337 1 77.9595 64.867 -5.55112e-17
338 1 145.039 195.74 -5.55112e-17
339 1 151.493 199.574 -5.55112e-17
340 1 18.2062 208.271 -5.55112e-17
341 1 161.818 205.597 -5.55112e-17
342 1 211.253 69.8869 -5.55112e-17
343 1 67.6178 26.7287 -5.55112e-17
344 1 53.6577 193.586 -5.55112e-17
345 1 89.7161 49.9775 -5.55112e-17
346 1 21.4774 176.223 -5.55112e-17
347 1 56.7981 118.658 -5.55112e-17
348 1 151.874 33.7323 -5.55112e-17
349 1 78.1829 56.7589 -5.55112e-17
350 2 156.681 1.03019 -5.55112e-17
351 1 126.046 177.638 -5.55112e-17
352 1 25.876 146.862 -5.55112e-17
353 1 89.7494 96.8788 -5.55112e-17
354 1 195.277 77.8723 -5.55112e-17
355 1 217.877 46.8546 -5.55112e-17
356 1 132.068 128.819 -5.55112e-17
357 1 178.026 179.701 -5.55112e-17
358 1 64.1319 71.7252 -5.55112e-17
359 1 78.5211 185.626 -5.55112e-17
360 1 197.926 194.888 -5.55112e-17
361 1 181.392 167.167 -5.55112e-17
362 1 56.3299 41.8671 -5.55112e-17
363 1 35.7615 161.897 -5.55112e-17
364 2 145.6 82.8412 -5.55112e-17
365 1 41.4418 138.928 -5.55112e-17
366 1 116.22 121.411 -5.55112e-17
367 1 77.7666 109.856 -5.55112e-17
368 1 45.6607 53.6202 -5.55112e-17
369 2 73.1933 173.799 -5.55112e-17
370 1 40.1765 17.6488 -5.55112e-17
371 1 136.079 153.661 -5.55112e-17
372 2 109.442 63.5553 -5.55112e-17
373 2 197.811 124.5 -5.55112e-17
374 1 88.1242 74.7605 -5.55112e-17
375 1 123.536 178.296 -5.55112e-17
376 1 127.515 70.9218 -5.55112e-17
377 1 177.99 126.497 -5.55112e-17
378 1 218.907 148.792 -5.55112e-17
379 1 68.8245 196.937 -5.55112e-17
380 1 128.002 213.718 -5.55112e-17
381 1 138.182 205.487 -5.55112e-17
382 1 141.663 104.494 -5.55112e-17
383 1 179.456 148.194 -5.55112e-17
384 1 194.645 172.442 -5.55112e-17
385 1 107.454 75.7065 -5.55112e-17
386 2 152.736 0.329202 -5.55112e-17
387 1 201.008 173.388 -5.55112e-17
388 1 140.011 20.3063 -5.55112e-17
389 1 89.3079 111.857 -5.55112e-17
390 2 164.79 144.212 -5.55112e-17
391 2 195.395 187.205 -5.55112e-17
392 1 3.39844 133.947 -5.55112e-17
393 1 148.716 206.972 -5.55112e-17
394 1 174.52 162.239 -5.55112e-17
395 1 20.9095 150.097 -5.55112e-17
396 1 132.597 29.2632 -5.55112e-17
397 1 103.202 97.822 -5.55112e-17
398 1 62.171 38.4619 -5.55112e-17
399 1 65.0788 137.573 -5.55112e-17
400 1 74.3063 12.3729 -5.55112e-17
401 1 16.535 31.6621 -5.55112e-17
402 2 30.701 48.4236 -5.55112e-17
403 1 158.458 49.2716 -5.55112e-17
404 1 72.9758 206.207 -5.55112e-17
405 1 31.7874 134.279 -5.55112e-17
406 1 164.591 74.6807 -5.55112e-17
407 2 27.4793 137.726 -5.55112e-17
408 1 160.542 163.033 -5.55112e-17
409 1 87.7349 1.81134 -5.55112e-17
410 1 60.0978 113.666 -5.55112e-17
411 1 197.356 137.327 -5.55112e-17
412 1 142.128 119.547 -5.55112e-17
413 1 57.3799 10.1833 -5.55112e-17
414 1 118.073 139.438 -5.55112e-17
415 1 119.406 124.855 -5.55112e-17
416 1 51.9735 169.271 -5.55112e-17
417 1 193.795 170.279 -5.55112e-17
418 2 182.545 42.0401 -5.55112e-17
419 1 132.717 53.4631 -5.55112e-17
420 2 16.2002 155.128 -5.55112e-17
421 1 205.192 127.269 -5.55112e-17
422 1 40.8785 218.299 -5.55112e-17
423 2 21.7214 108.061 -5.55112e-17
424 1 193.429 101.714 -5.55112e-17
425 1 7.37716 89.4867 -5.55112e-17
426 1 197.144 2.18725 -5.55112e-17
427 1 9.32606 29.7078 -5.55112e-17
428 1 147.601 60.8412 -5.55112e-17
429 1 174.637 211.748 -5.55112e-17
430 1 126.984 150.285 -5.55112e-17
431 1 174.163 22.7509 -5.55112e-17
432 1 164.483 34.7228 -5.55112e-17
433 1 62.5052 185.574 -5.55112e-17
434 1 45.5916 175.815 -5.55112e-17
435 1 102.407 163.795 -5.55112e-17
436 1 5.60546 101.306 -5.55112e-17
437 1 16.2507 100.693 -5.55112e-17
438 2 72.8058 42.7484 -5.55112e-17
439 1 65.4738 1.65075 -5.55112e-17
440 1 151.552 130.145 -5.55112e-17
441 1 192.552 110.627 -5.55112e-17
442 1 16.1312 83.0464 -5.55112e-17
443 1 120.578 139.926 -5.55112e-17
444 1 18.6831 70.2457 -5.55112e-17
445 1 125.732 32.4058 -5.55112e-17
446 1 115.453 110.022 -5.55112e-17
447 1 16.9476 43.7744 -5.55112e-17
448 1 166.161 190.559 -5.55112e-17
449 1 103.141 130.235 -5.55112e-17
450 1 45.8717 106.043 -5.55112e-17
451 1 66.2515 28.7397 -5.55112e-17
452 1 172.178 132.49 -5.55112e-17
453 1 71.8949 16.6818 -5.55112e-17
454 1 50.8954 122.125 -5.55112e-17
455 1 195.368 117.879 -5.55112e-17
456 1 123.496 112.378 -5.55112e-17
457 1 26.4985 85.8016 -5.55112e-17
458 1 127.205 192.846 -5.55112e-17
459 1 42.1124 186.695 -5.55112e-17
460 1 42.6173 92.9577 -5.55112e-17
461 1 58.5971 183.508 -5.55112e-17
462 1 113.349 195.407 -5.55112e-17
463 1 67.435 109.972 -5.55112e-17
464 1 160.19 136.628 -5.55112e-17
465 1 179.003 166.304 -5.55112e-17
466 1 0.475225 44.6409 -5.55112e-17
467 1 186 118.448 -5.55112e-17
468 1 56.2194 138.311 -5.55112e-17
469 1 170.843 52.6668 -5.55112e-17
470 1 215.268 109.281 -5.55112e-17
471 1 165.803 122.392 -5.55112e-17
472 1 117.16 136.898 -5.55112e-17
473 1 209.827 161.828 -5.55112e-17
474 1 171.437 57.5074 -5.55112e-17
475 1 125.457 214.001 -5.55112e-17
476 2 14.5224 73.2978 -5.55112e-17
477 1 184.961 193.675 -5.55112e-17
478 1 202.32 109.56 -5.55112e-17
479 1 147.588 204.72 -5.55112e-17
480 1 161.903 187.142 -5.55112e-17
481 1 56.1093 70.3934 -5.55112e-17
482 1 10.955 27.1709 -5.55112e-17
483 1 88.9637 160.261 -5.55112e-17
484 2 23.2497 86.3338 -5.55112e-17
485 1 182.116 173.551 -5.55112e-17
486 1 102.688 157.735 -5.55112e-17
487 1 20.0333 163.805 -5.55112e-17
488 1 78.9252 42.7378 -5.55112e-17
489 1 177.108 167.681 -5.55112e-17
490 1 4.66225 77.1788 -5.55112e-17
491 1 70.4139 31.0561 -5.55112e-17
492 1 193.287 139.66 -5.55112e-17
493 1 140.56 205.839 -5.55112e-17
494 1 129.859 108.917 -5.55112e-17
495 1 5.51328 141.702 -5.55112e-17
496 2 32.9331 90.0655 -5.55112e-17
497 1 131.145 37.0447 -5.55112e-17
498 1 25.9034 122.048 -5.55112e-17
499 2 118.983 106.604 -5.55112e-17
500 1 90.2625 102.216 -5.55112e-17
501 2 163.114 212.464 -5.55112e-17
502 2 72.8429 9.66414 -5.55112e-17
503 1 90.515 133.846 -5.55112e-17
504 1 146.202 74.3142 -5.55112e-17
505 1 186.524 100.439 -5.55112e-17
506 1 213.058 174.067 -5.55112e-17
507 1 9.40049 123.59 -5.55112e-17
508 1 31.7972 80.5636 -5.55112e-17
509 2 81.4216 147.837 -5.55112e-17
510 2 199.761 108.299 -5.55112e-17
511 1 171.476 5.67549 -5.55112e-17
512 2 128.322 159.987 -5.55112e-17
513 1 138.663 38.4971 -5.55112e-17
514 1 64.208 176.618 -5.55112e-17
515 1 10.7842 0.473491 -5.55112e-17
516 1 54.2449 168.146 -5.55112e-17
517 1 204.071 129.971 -5.55112e-17
518 2 167.243 124.738 -5.55112e-17
519 1 46.5628 173.15 -5.55112e-17
520 2 215.619 127.831 -5.55112e-17
521 1 189.911 41.3037 -5.55112e-17
522 1 104.358 180.507 -5.55112e-17
523 1 152.426 171.531 -5.55112e-17
524 1 14.2303 63.7119 -5.55112e-17
525 1 77.8362 1.22377 -5.55112e-17
526 1 166.553 46.1314 -5.55112e-17
527 1 79.8963 61.1463 -5.55112e-17
528 1 215.032 55.6531 -5.55112e-17
529 1 43.8164 145.495 -5.55112e-17
530 1 192.248 155.297 -5.55112e-17
531 1 1.66573 214.552 -5.55112e-17
532 1 80.0149 187.811 -5.55112e-17
533 1 110.087 75.9679 -5.55112e-17
534 1 214.106 50.5344 -5.55112e-17
535 1 148.746 151.525 -5.55112e-17
536 1 100.971 81.8223 -5.55112e-17
537 1 67.8625 205.24 -5.55112e-17
538 1 26.8542 35.2356 -5.55112e-17
539 1 46.2976 0.383866 -5.55112e-17
540 1 25.9466 158.415 -5.55112e-17
541 1 29.9519 31.7767 -5.55112e-17
542 1 109.303 201.571 -5.55112e-17
543 1 68.8065 72.6017 -5.55112e-17
544 1 167.466 212.708 -5.55112e-17
545 1 208.222 95.3078 -5.55112e-17
546 1 145.976 3.54747 -5.55112e-17
547 1 33.4293 13.0725 -5.55112e-17
548 1 30.757 12.9623 -5.55112e-17
549 1 92.6422 101.835 -5.55112e-17
550 2 205.879 79.2504 -5.55112e-17
551 2 151.545 189.512 -5.55112e-17
552 2 189.761 108.717 -5.55112e-17
553 1 101.694 172.779 -5.55112e-17
554 1 107.791 91.365 -5.55112e-17
555 2 113.856 156.161 -5.55112e-17
556 1 150.41 182.666 -5.55112e-17
557 1 83.415 152.315 -5.55112e-17
558 1 13.5812 186.469 -5.55112e-17
559 1 2.99595 75.3467 -5.55112e-17
560 1 102.806 10.3504 -5.55112e-17
561 1 24.5017 186.143 -5.55112e-17
562 1 126.476 12.1089 -5.55112e-17
563 2 175.734 158.852 -5.55112e-17
564 1 166.834 35.6521 -5.55112e-17
565 1 147.827 42.8462 -5.55112e-17
566 1 139.587 86.5811 -5.55112e-17
567 1 94.9883 210.091 -5.55112e-17
568 1 190.624 77.9311 -5.55112e-17
569 1 51.7283 197.539 -5.55112e-17
570 1 153.884 35.2024 -5.55112e-17
571 1 95.1877 95.3248 -5.55112e-17
572 1 193.515 36.8353 -5.55112e-17
573 1 84.6507 58.3534 -5.55112e-17
574 1 117.346 88.9467 -5.55112e-17
575 1 207.045 7.81901 -5.55112e-17
576 1 92.2686 194.386 -5.55112e-17
577 1 86.7345 99.0541 -5.55112e-17
578 1 132.131 32.033 -5.55112e-17
579 1 87.6661 107.069 -5.55112e-17
580 1 172.035 16.4353 -5.55112e-17
581 1 129.507 199.942 -5.55112e-17
582 1 202.186 65.3533 -5.55112e-17
583 1 120.651 181.989 -5.55112e-17
584 2 39.6629 77.1102 -5.55112e-17
585 1 130.688 52.0014 -5.55112e-17
586 1 143.373 218.449 -5.55112e-17
587 1 201.879 131.037 -5.55112e-17
588 1 215.641 70.7023 -5.55112e-17
589 1 183.217 96.848 -5.55112e-17
590 1 105.415 192.226 -5.55112e-17
591 1 80.8542 180.797 -5.55112e-17
592 1 144.426 5.68031 -5.55112e-17
593 1 127.365 82.0085 -5.55112e-17
594 1 163.245 39.8555 -5.55112e-17
595 1 31.4013 145.349 -5.55112e-17
596 1 95.4809 28.4394 -5.55112e-17
597 2 83.2722 116.252 -5.55112e-17
598 1 71.3925 160.961 -5.55112e-17
599 1 13.4979 153.808 -5.55112e-17
600 1 97.923 12.1201 -5.55112e-17
601 1 207.546 146.653 -5.55112e-17
602 1 212.524 100.623 -5.55112e-17
603 1 129.207 125.644 -5.55112e-17
604 1 174.745 34.4233 -5.55112e-17
605 2 199.412 10.6015 -5.55112e-17
606 1 72.6013 82.4001 -5.55112e-17
607 2 212.326 187.733 -5.55112e-17
608 1 8.77196 53.6182 -5.55112e-17
609 1 77.376 205.382 -5.55112e-17
610 1 172.586 115.004 -5.55112e-17
611 1 38.9001 197.274 -5.55112e-17
612 1 30.2735 17.1145 -5.55112e-17
613 1 88.0348 91.5649 -5.55112e-17
614 2 133.846 203.032 -5.55112e-17
615 1 138.284 136.038 -5.55112e-17
616 1 29.1122 91.8738 -5.55112e-17
617 1 199.65 197.13 -5.55112e-17
618 1 26.3746 212.513 -5.55112e-17
619 1 14.0022 8.8081 -5.55112e-17
620 1 127.109 21.253 -5.55112e-17
621 1 115.428 20.8678 -5.55112e-17
622 1 123.397 12.878 -5.55112e-17
623 1 8.10948 31.8307 -5.55112e-17
624 1 146.192 130.753 -5.55112e-17
625 1 65.7198 165.091 -5.55112e-17
626 1 175.611 41.3026 -5.55112e-17
627 1 166.442 131.774 -5.55112e-17
628 1 191.22 50.6911 -5.55112e-17
629 1 165.372 176.201 -5.55112e-17
630 2 140.813 101.921 -5.55112e-17
631 1 168.226 158.038 -5.55112e-17
632 1 53.7726 131.658 -5.55112e-17
633 1 159 190.109 -5.55112e-17
634 1 138.32 72.5025 -5.55112e-17
635 1 171.597 85.5795 -5.55112e-17
636 1 14.6368 13.7498 -5.55112e-17
637 1 62.6982 112.791 -5.55112e-17
638 1 40.611 176.699 -5.55112e-17
639 2 82.2494 83.3957 -5.55112e-17
640 1 214.039 104.88 -5.55112e-17
641 1 187.814 60.3178 -5.55112e-17
642 1 125.886 86.2233 -5.55112e-17
643 2 43.8824 134.9 -5.55112e-17
644 1 155.488 25.1 -5.55112e-17
645 1 186.46 33.3386 -5.55112e-17
646 2 107.018 153.819 -5.55112e-17
647 1 141.978 203.566 -5.55112e-17
648 1 9.65515 135.717 -5.55112e-17
649 2 148.663 4.23429 -5.55112e-17
650 1 61.4745 53.742 -5.55112e-17
651 1 5.27258 71.3697 -5.55112e-17
652 1 212.329 141.6 -5.55112e-17
653 1 133.737 63.1201 -5.55112e-17
654 1 32.9546 97.4928 -5.55112e-17
655 2 160.123 12.0844 -5.55112e-17
656 1 12.1017 91.3029 -5.55112e-17
657 2 126.465 218.959 -5.55112e-17
658 1 124.117 93.0061 -5.55112e-17
659 2 3.35759 200.64 -5.55112e-17
660 1 132.917 178.842 -5.55112e-17
661 1 36.4602 133.329 -5.55112e-17
662 1 156.233 15.193 -5.55112e-17
663 1 177.537 105.468 -5.55112e-17
664 1 198.724 13.4016 -5.55112e-17
665 1 62.0874 194.645 -5.55112e-17
666 2 71.9341 157.683 -5.55112e-17
667 1 21.3233 77.3192 -5.55112e-17
668 2 165.242 85.8984 -5.55112e-17
669 1 98.8982 206.138 -5.55112e-17
670 1 2.68807 53.323 -5.55112e-17
671 2 118.372 59.1296 -5.55112e-17
672 1 215.554 46.425 -5.55112e-17
673 1 198.53 127.392 -5.55112e-17
674 1 84.5664 154.533 -5.55112e-17
675 1 188.973 144.68 -5.55112e-17
676 1 193.3 153.142 -5.55112e-17
677 1 166.045 181.119 -5.55112e-17
678 1 85.2375 38.6649 -5.55112e-17
679 2 119.276 156.117 -5.55112e-17
680 1 81.4432 153.884 -5.55112e-17
681 2 181.893 12.1535 -5.55112e-17
682 1 40.9562 145.618 -5.55112e-17
683 1 107.96 212.945 -5.55112e-17
684 1 9.8831 44.327 -5.55112e-17
685 1 23.4392 122.997 -5.55112e-17
686 1 19.9262 188.269 -5.55112e-17
687 1 25.4838 173.45 -5.55112e-17
688 1 40.8727 215.351 -5.55112e-17
689 2 26.8189 94.0643 -5.55112e-17
690 1 158.139 174.739 -5.55112e-17
691 1 141.217 146.456 -5.55112e-17
692 1 137.433 61.0253 -5.55112e-17
693 1 93.3409 5.7366 -5.55112e-17
694 1 4.86697 146.294 -5.55112e-17
695 1 162.461 16.9564 -5.55112e-17
696 1 161.208 142.864 -5.55112e-17
697 1 169.364 16.9481 -5.55112e-17
698 1 17.4878 189.945 -5.55112e-17
699 1 147.987 27.7428 -5.55112e-17
700 1 90.0904 171.632 -5.55112e-17
701 1 199.96 217.525 -5.55112e-17
702 1 171.199 77.4306 -5.55112e-17
703 2 135.816 74.2426 -5.55112e-17
704 1 188.126 179.011 -5.55112e-17
705 2 74.7115 21.5451 -5.55112e-17
706 1 94.8839 100.781 -5.55112e-17
707 1 135.815 144.224 -5.55112e-17
708 1 48.2155 192.85 -5.55112e-17
709 1 30.4735 45.126 -5.55112e-17
710 1 148.065 140.296 -5.55112e-17
711 1 74.72 4.19841 -5.55112e-17
712 1 120.374 33.8819 -5.55112e-17
713 1 102.839 192.178 -5.55112e-17
714 1 210.08 35.257 -5.55112e-17
715 1 35.8258 4.28222 -5.55112e-17
716 1 5.71343 21.892 -5.55112e-17
717 1 54.2973 74.8371 -5.55112e-17
718 1 23.2578 55.7996 -5.55112e-17
719 2 178.525 67.2212 -5.55112e-17
720 1 92.5577 87.7352 -5.55112e-17
721 1 191.137 100.275 -5.55112e-17
722 1 59.5675 119.501 -5.55112e-17
723 2 58.3494 124.431 -5.55112e-17
724 1 73.1322 94.8193 -5.55112e-17
725 1 186.809 159.317 -5.55112e-17
726 1 192.6 84.1867 -5.55112e-17
727 1 103.79 7.83484 -5.55112e-17
728 2 176.296 10.6816 -5.55112e-17
729 1 65.5356 80.3561 -5.55112e-17
730 1 136.171 148.93 -5.55112e-17
731 1 86.6406 147.514 -5.55112e-17
732 1 114.8 125.759 -5.55112e-17
733 1 68.7823 211.836 -5.55112e-17
734 1 52.9063 38.6859 -5.55112e-17
735 1 198.65 209.686 -5.55112e-17
736 2 58.5752 159.863 -5.55112e-17
737 1 44.082 188.36 -5.55112e-17
738 1 190.545 185.579 -5.55112e-17
739 1 128.219 173.977 -5.55112e-17
740 1 183.759 55.9085 -5.55112e-17
741 2 51.3828 36.2436 -5.55112e-17
742 1 32.064 191.26 -5.55112e-17
743 1 179.94 14.5452 -5.55112e-17
744 2 63.056 51.4113 -5.55112e-17
745 1 194.572 155.473 -5.55112e-17
746 1 63.0038 174.227 -5.55112e-17
747 2 68.0847 87.2207 -5.55112e-17
748 1 144.098 183.785 -5.55112e-17
749 1 109.461 134.085 -5.55112e-17
750 1 13.3508 208.918 -5.55112e-17
751 1 141.733 183.957 -5.55112e-17
752 1 30.7724 197.815 -5.55112e-17
753 1 32.4496 60.8408 -5.55112e-17
754 1 45.8712 183.283 -5.55112e-17
755 1 4.21954 34.5427 -5.55112e-17
756 2 187.616 186.434 -5.55112e-17
757 1 203.927 172.927 -5.55112e-17
758 1 67.0651 176.646 -5.55112e-17
759 1 157.826 155.248 -5.55112e-17
760 1 29.8906 104.245 -5.55112e-17
761 1 161.044 180.353 -5.55112e-17
762 1 50.8653 4.98625 -5.55112e-17
763 1 29.3794 81.5758 -5.55112e-17
764 2 217.289 215.49 -5.55112e-17
765 1 172.835 182.517 -5.55112e-17
766 1 52.8602 23.5438 -5.55112e-17
767 1 78.1023 199.201 -5.55112e-17
768 1 152.85 70.3102 -5.55112e-17
769 1 186.78 181.095 -5.55112e-17
770 2 100.595 194.195 -5.55112e-17
771 1 79.4848 156.5 -5.55112e-17
772 1 66.4975 58.8812 -5.55112e-17
773 1 75.2645 1.95079 -5.55112e-17
774 1 168.265 179.717 -5.55112e-17
775 1 56.6857 79.5906 -5.55112e-17
776 1 170.171 124.335 -5.55112e-17
777 1 146.639 105.657 -5.55112e-17
778 1 78.2075 121.953 -5.55112e-17
779 1 73.3528 122.705 -5.55112e-17
780 1 173.585 127.802 -5.55112e-17
781 1 208.59 106.247 -5.55112e-17
782 1 65.3593 87.2614 -5.55112e-17
783 1 15.0279 37.9001 -5.55112e-17
784 2 157.184 87.0555 -5.55112e-17
785 1 66.816 13.9919 -5.55112e-17
786 1 97.6544 103.293 -5.55112e-17
787 1 151.739 47.1919 -5.55112e-17
788 1 211.871 61.8955 -5.55112e-17
789 2 193.323 184.797 -5.55112e-17
790 1 184.915 114.982 -5.55112e-17
791 2 215.092 36.4404 -5.55112e-17
792 2 102.149 67.3582 -5.55112e-17
793 2 68.1652 150.721 -5.55112e-17
794 1 140.059 159.363 -5.55112e-17
795 1 64.3275 119.178 -5.55112e-17
796 1 54.3902 209.3 -5.55112e-17
797 1 74.1413 156.063 -5.55112e-17
798 2 72.5346 110.054 -5.55112e-17
799 2 184.906 156.768 -5.55112e-17
800 2 152.871 30.7073 -5.55112e-17
801 1 44.4919 73.5425 -5.55112e-17
802 1 61.6829 18.9828 -5.55112e-17
803 1 84.7805 33.6412 -5.55112e-17
804 2 139.923 10.967 -5.55112e-17
805 1 203.287 133.11 -5.55112e-17
806 1 71.2776 115.839 -5.55112e-17
807 2 173.253 42.9245 -5.55112e-17
808 1 137.092 130.262 -5.55112e-17
809 2 13.523 196.311 -5.55112e-17
810 1 94.7497 89.1055 -5.55112e-17
811 1 116.871 31.1976 -5.55112e-17
812 1 183.011 184.274 -5.55112e-17
813 2 195.497 44.6942 -5.55112e-17
814 1 109.537 95.1587 -5.55112e-17
815 1 147.388 30.3008 -5.55112e-17
816 1 77.6576 62.1316 -5.55112e-17
817 1 13.0321 1.59806 -5.55112e-17
818 1 178.376 64.3385 -5.55112e-17
819 1 15.7365 207.66 -5.55112e-17
820 1 8.74896 209.835 -5.55112e-17
821 1 31.2877 58.6501 -5.55112e-17
822 2 150.674 6.63125 -5.55112e-17
823 2 127.162 41.4632 -5.55112e-17
824 1 6.17886 7.84678 -5.55112e-17
825 1 101.833 203.275 -5.55112e-17
826 1 154.113 88.2251 -5.55112e-17
827 1 56.3622 76.665 -5.55112e-17
828 1 145.327 140.196 -5.55112e-17
829 1 215.655 65.1382 -5.55112e-17
830 1 213.162 190.533 -5.55112e-17
831 1 25.8194 126.785 -5.55112e-17
832 1 86.2794 117.841 -5.55112e-17
833 1 105.094 75.5509 -5.55112e-17
834 1 43.6707 90.4723 -5.55112e-17
835 1 9.93594 5.23974 -5.55112e-17
836 1 87.4472 89.3217 -5.55112e-17
837 1 96.9477 129.973 -5.55112e-17
838 1 37.7797 97.1176 -5.55112e-17
839 2 208.137 25.5489 -5.55112e-17
840 1 121.676 11.2 -5.55112e-17
841 2 99.7178 162.289 -5.55112e-17
842 1 68.1009 74.9672 -5.55112e-17
843 2 118.559 91.9563 -5.55112e-17
844 1 51.2409 166.862 -5.55112e-17
845 1 18.0702 19.1893 -5.55112e-17
846 1 118.871 152.464 -5.55112e-17
847 1 75.0179 73.1124 -5.55112e-17
848 1 163.572 185.247 -5.55112e-17
849 1 133.78 24.073 -5.55112e-17
850 1 70.3006 35.8842 -5.55112e-17
851 1 192.199 150.685 -5.55112e-17
852 1 155.016 132.92 -5.55112e-17
853 1 206.713 97.102 -5.55112e-17
854 1 190.114 85.2088 -5.55112e-17
855 1 19.3543 112.238 -5.55112e-17
856 1 149.14 106.608 -5.55112e-17