ITEM: TIMESTEP
0
ITEM: NUMBER OF ATOMS
7200
ITEM: BOX BOUNDS xy xz yz pp pp pp
0.0000000000000000e+00 2.1900000000000000e+02 0.0000000000000000e+00
0.0000000000000000e+00 2.1900000000000000e+02 0.0000000000000000e+00
-3.6499999999999999e-01 3.6499999999999999e-01 0.0000000000000000e+00
ITEM: ATOMS id type x y z
1 1 200.934 61.2844 -5.55112e-17
2 1 194.009 8.61071 -5.55112e-17
3 1 8.09387 204.548 -5.55112e-17
4 1 80.9471 205.083 -5.55112e-17
5 1 202.362 176.389 -5.55112e-17
6 1 96.95 150.653 -5.55112e-17
7 1 0.972965 131.293 -5.55112e-17
8 2 88.7376 139.942 -5.55112e-17
9 1 128.978 52.8252 -5.55112e-17
10 2 147.84 125.256 -5.55112e-17
11 1 80.7085 46.5097 -5.55112e-17
12 1 10.1364 37.0284 -5.55112e-17
13 2 9.96797 2.42848 -5.55112e-17
14 1 188.971 25.1846 -5.55112e-17
15 1 7.52846 56.2517 -5.55112e-17
16 2 41.1635 132.086 -5.55112e-17
17 1 56.4975 85.7892 -5.55112e-17
18 2 203.007 107.844 -5.55112e-17
19 1 115.379 56.4434 -5.55112e-17
20 1 216.929 192.157 -5.55112e-17
21 1 148.431 82.5358 -5.55112e-17
22 2 99.3585 36.1144 -5.55112e-17
23 2 174.97 62.4203 -5.55112e-17
24 1 13.2438 199.683 -5.55112e-17
25 1 87.2766 14.2315 -5.55112e-17
26 2 185.704 148.842 -5.55112e-17
27 1 93.8621 141.824 -5.55112e-17
28 2 119.804 108.728 -5.55112e-17
29 1 206.774 52.1659 -5.55112e-17
30 1 116.347 128.81 -5.55112e-17
31 1 190.028 208.893 -5.55112e-17
32 1 61.7404 39.1862 -5.55112e-17
33 1 122.898 176.535 -5.55112e-17
34 1 180.431 83.3272 -5.55112e-17
35 1 115.078 75.8501 -5.55112e-17
36 1 29.8117 106.2 -5.55112e-17
37 2 67.5998 210.478 -5.55112e-17
38 1 68.1471 85.4604 -5.55112e-17
39 1 36.8699 158.481 -5.55112e-17
40 1 211.794 114.298 -5.55112e-17
41 1 195.441 176.991 -5.55112e-17
42 1 23.9899 49.649 -5.55112e-17
43 1 131.205 185.934 -5.55112e-17
44 1 7.98654 84.6358 -5.55112e-17
45 1 215.986 148.84 -5.55112e-17
46 1 68.2829 21.8941 -5.55112e-17
47 1 113.736 77.8599 -5.55112e-17
48 2 32.7255 105.673 -5.55112e-17
49 1 213.513 26.0138 -5.55112e-17
50 1 96.9898 44.2003 -5.55112e-17
51 1 145.4 102.731 -5.55112e-17
52 1 150.803 5.64369 -5.55112e-17
53 1 78.0627 134.609 -5.55112e-17
54 1 67.5388 178.836 -5.55112e-17
55 1 68.2074 96.9134 -5.55112e-17
56 1 69.6495 113.412 -5.55112e-17
57 2 75.5345 0.996442 -5.55112e-17
58 1 183.194 165.109 -5.55112e-17
59 1 116.521 53.9125 -5.55112e-17
60 2 41.3539 8.94624 -5.55112e-17
61 2 58.4988 197.274 -5.55112e-17
62 1 123.66 113.852 -5.55112e-17
63 1 89.6295 174.229 -5.55112e-17
64 1 103.172 127.399 -5.55112e-17
65 1 5.25319 180.319 -5.55112e-17
66 1 70.2323 86.6796 -5.55112e-17
67 1 169.4 183.662 -5.55112e-17
68 1 88.1437 48.2065 -5.55112e-17
69 1 199.984 175.463 -5.55112e-17
70 1 64.9367 145.971 -5.55112e-17
71 1 135.495 185.548 -5.55112e-17
72 1 194.589 197.746 -5.55112e-17
73 1 139.601 93.4677 -5.55112e-17
74 1 102.151 34.7073 -5.55112e-17
75 2 27.9114 194.166 -5.55112e-17
76 1 38.1805 99.6134 -5.55112e-17
77 1 32.5387 8.10646 -5.55112e-17
78 1 83.9952 30.1734 -5.55112e-17
79 2 123.492 150.435 -5.55112e-17
80 1 97.3139 218.444 -5.55112e-17
81 1 27.7703 26.0585 -5.55112e-17
82 1 113.84 21.5376 -5.55112e-17
83 2 112.403 132.002 -5.55112e-17
84 1 70.2909 89.389 -5.55112e-17
85 1 76.4803 118.002 -5.55112e-17
86 1 30.0122 160.583 -5.55112e-17
87 1 22.9568 13.7896 -5.55112e-17
88 1 123.462 104.89 -5.55112e-17
89 2 34.766 48.7535 -5.55112e-17
90 2 203.161 59.3653 -5.55112e-17
91 1 63.2636 162.622 -5.55112e-17
92 2 139.755 22.8282 -5.55112e-17
93 1 166.499 195.148 -5.55112e-17
94 2 65.3922 149.491 -5.55112e-17
95 1 26.8408 54.2035 -5.55112e-17
96 1 44.1796 196.316 -5.55112e-17
97 1 218.971 61.6191 -5.55112e-17
98 1 62.5591 174.529 -5.55112e-17
99 1 213.566 45.2133 -5.55112e-17
100 1 26.2437 28.0259 -5.55112e-17
101 1 22.0718 15.5941 -5.55112e-17
102 1 186.082 51.4026 -5.55112e-17
103 1 174.548 20.668 -5.55112e-17
104 1 74.824 167.745 -5.55112e-17
105 1 17.4488 126.293 -5.55112e-17
106 1 101.609 169.253 -5.55112e-17
107 2 216.769 217.727 -5.55112e-17
108 1 211.413 195.59 -5.55112e-17
109 1 51.0381 51.1382 -5.55112e-17
110 1 164.994 214.056 -5.55112e-17
111 1 11.8183 193.17 -5.55112e-17
112 1 144.021 139.231 -5.55112e-17
113 1 102.963 189.092 -5.55112e-17
114 1 5.17388 175.483 -5.55112e-17
115 1 194.061 151.722 -5.55112e-17
116 2 144.254 175.326 -5.55112e-17
117 1 75.1765 123.693 -5.55112e-17
118 1 154.757 132.439 -5.55112e-17
119 2 162.405 86.4655 -5.55112e-17
120 1 166.19 24.5289 -5.55112e-17
121 1 93.8287 111.925 -5.55112e-17
122 1 37.2876 140.757 -5.55112e-17
123 1 50.1889 148.15 -5.55112e-17
124 1 8.33041 202.093 -5.55112e-17
125 1 120.811 194.372 -5.55112e-17
126 1 65.0539 174.02 -5.55112e-17
127 1 87.5796 209.891 -5.55112e-17
128 1 89.149 147.604 -5.55112e-17
129 1 43.2271 6.61178 -5.55112e-17
130 1 31.2784 55.8287 -5.55112e-17
131 1 115.549 85.1444 -5.55112e-17
132 2 48.3674 97.1512 -5.55112e-17
133 1 93.9877 129.265 -5.55112e-17
134 1 135.269 116.674 -5.55112e-17
135 1 184.643 151.215 -5.55112e-17
136 1 122.396 82.4206 -5.55112e-17
137 1 210.404 134.659 -5.55112e-17
138 1 123.696 61.3679 -5.55112e-17
139 1 21.2215 186.042 -5.55112e-17
140 2 14.6046 60.8292 -5.55112e-17
141 1 25.2609 211.015 -5.55112e-17
142 2 21.6398 155.812 -5.55112e-17
143 1 196.488 4.06862 -5.55112e-17
144 2 111.026 138.126 -5.55112e-17
145 1 148.953 192.266 -5.55112e-17
146 1 7.75944 87.471 -5.55112e-17
147 1 85.9601 71.8904 -5.55112e-17
148 1 122.515 125.643 -5.55112e-17
149 1 60.5468 203.468 -5.55112e-17
150 1 123.836 136.486 -5.55112e-17
151 1 29.9673 192.559 -5.55112e-17
152 1 87.3013 170.146 -5.55112e-17
153 2 58.4631 191.416 -5.55112e-17
154 1 87.5125 212.437 -5.55112e-17
155 1 187.362 37.525 -5.55112e-17
156 2 186.489 189.555 -5.55112e-17
157 1 112.354 33.9518 -5.55112e-17
158 1 38.3667 168.4 -5.55112e-17
159 1 154.941 114.89 -5.55112e-17
160 1 92.0532 159.913 -5.55112e-17
161 1 213.632 210.393 -5.55112e-17
162 1 116.983 111.802 -5.55112e-17
163 1 128.055 20.7895 -5.55112e-17
164 1 28.0334 80.9635 -5.55112e-17
165 1 167.769 169.952 -5.55112e-17
166 2 10.4297 119.91 -5.55112e-17
167 1 128.879 114.086 -5.55112e-17
168 1 35.1365 174.829 -5.55112e-17
169 1 56.5865 186.09 -5.55112e-17
170 1 145.905 80.3348 -5.55112e-17
171 1 184.381 104.804 -5.55112e-17
172 1 24.5901 44.3088 -5.55112e-17
173 1 106.73 100.194 -5.55112e-17
174 1 94.496 67.0406 -5.55112e-17
175 2 130.597 71.1762 -5.55112e-17
176 1 95.3015 206.771 -5.55112e-17
177 2 127.34 88.1713 -5.55112e-17
178 1 210.897 162.282 -5.55112e-17
179 1 144.717 97.0766 -5.55112e-17
180 1 191.58 190.327 -5.55112e-17
181 1 171.43 27.6465 -5.55112e-17
182 2 170.485 168.954 -5.55112e-17
183 1 104.174 63.7863 -5.55112e-17
184 1 216.366 196.449 -5.55112e-17
185 2 185.53 157.014 -5.55112e-17
186 2 3.88955 75.3252 -5.55112e-17
187 1 123.304 7.18521 -5.55112e-17
188 1 186.24 48.7996 -5.55112e-17
189 1 209.529 74.2693 -5.55112e-17
190 2 136.222 122.681 -5.55112e-17
191 1 120.319 113.996 -5.55112e-17
192 2 45.9811 142.065 -5.55112e-17
193 2 78.5295 148.089 -5.55112e-17
194 1 44.0316 71.9951 -5.55112e-17
195 1 13.6701 22.9832 -5.55112e-17
196 1 182.569 209.088 -5.55112e-17
197 1 57.0888 97.2717 -5.55112e-17
198 2 28.602 2.55992 -5.55112e-17
199 1 9.15301 112.012 -5.55112e-17
200 1 101.524 88.8257 -5.55112e-17
201 2 165.055 113.639 -5.55112e-17
202 1 161.015 139.282 -5.55112e-17
203 1 104.504 93.7545 -5.55112e-17
204 1 4.54971 194.238 -5.55112e-17
205 2 38.8656 106.08 -5.55112e-17
206 1 192.868 162.949 -5.55112e-17
207 1 209.472 145.02 -5.55112e-17
208 1 19.6695 26.5713 -5.55112e-17
209 1 146.019 63.7005 -5.55112e-17
210 1 136.259 150.188 -5.55112e-17
211 2 86.1184 59.3406 -5.55112e-17
212 1 160.422 79.2241 -5.55112e-17
213 1 41.6565 65.0256 -5.55112e-17
214 1 172.425 69.2436 -5.55112e-17
215 1 205.507 195.804 -5.55112e-17
216 1 139.745 37.126 -5.55112e-17
217 1 143.374 163.528 -5.55112e-17
218 2 130.133 30.1545 -5.55112e-17
219 1 99.6118 33.2617 -5.55112e-17
220 2 216.819 52.2394 -5.55112e-17
221 1 104.795 51.6392 -5.55112e-17
222 1 84.6651 40.139 -5.55112e-17
223 1 112.486 191.276 -5.55112e-17
224 2 143.387 62.2623 -5.55112e-17
225 1 86.7267 64.0445 -5.55112e-17
226 1 183.652 126.269 -5.55112e-17
227 2 35.8226 20.6191 -5.55112e-17
228 1 210.188 39.3158 -5.55112e-17
229 1 98.4817 78.0009 -5.55112e-17
230 1 197.197 127.199 -5.55112e-17
231 1 79.7319 72.8075 -5.55112e-17
232 1 127.991 70.5289 -5.55112e-17
233 1 9.44631 77.1979 -5.55112e-17
234 1 176.026 146.314 -5.55112e-17
235 1 86.0732 80.0414 -5.55112e-17
236 1 118.622 59.3393 -5.55112e-17
237 1 130.009 6.66962 -5.55112e-17
238 1 90.0925 66.5705 -5.55112e-17
239 2 131.076 90.1352 -5.55112e-17
240 1 170.299 145.635 -5.55112e-17
241 2 218.954 179.316 -5.55112e-17
242 2 84.9849 208.435 -5.55112e-17
243 2 54.4299 11.988 -5.55112e-17
244 1 47.5658 148.03 -5.55112e-17
245 1 69.3804 80.7733 -5.55112e-17
246 1 143.827 8.32337 -5.55112e-17
247 1 22.6045 171.814 -5.55112e-17
248 1 35.2401 118.071 -5.55112e-17
249 1 207.882 72.103 -5.55112e-17
250 2 72.4878 103.027 -5.55112e-17
251 1 179.859 151.956 -5.55112e-17
252 1 85.4381 27.9511 -5.55112e-17
253 1 125.936 183.736 -5.55112e-17
254 2 112.127 1.01016 -5.55112e-17
255 1 169.79 61.0731 -5.55112e-17
256 1 132.238 86.687 -5.55112e-17
257 1 38.1803 10.6045 -5.55112e-17
258 2 191.763 43.9272 -5.55112e-17
259 1 103.721 191.495 -5.55112e-17
260 1 6.87579 60.8549 -5.55112e-17
261 1 141.652 183.726 -5.55112e-17
262 1 171.564 110.622 -5.55112e-17
263 1 98.3912 8.85421 -5.55112e-17
264 1 209.588 31.7352 -5.55112e-17
265 1 97.1745 105.576 -5.55112e-17
266 1 30.1131 63.4145 -5.55112e-17
267 1 177.597 151.093 -5.55112e-17
268 1 100.624 76.458 -5.55112e-17
269 1 149.141 167.279 -5.55112e-17
270 1 213.992 74.5918 -5.55112e-17
271 1 186.854 77.2951 -5.55112e-17
272 1 173.733 13.5782 -5.55112e-17
273 1 126.062 104.749 -5.55112e-17
274 2 107.079 108.396 -5.55112e-17
275 1 154.368 72.675 -5.55112e-17
276 2 39.1829 36.8372 -5.55112e-17
277 2 134.356 148.254 -5.55112e-17
278 1 51.5617 211.934 -5.55112e-17
279 2 209.122 139.451 -5.55112e-17
280 1 111.779 155.427 -5.55112e-17
281 1 186.539 87.2508 -5.55112e-17
282 1 185.591 176.428 -5.55112e-17
283 1 213.939 18.8414 -5.55112e-17
284 1 156.884 87.6241 -5.55112e-17
285 1 183.917 94.0159 -5.55112e-17
286 2 160.889 159.343 -5.55112e-17
287 1 179.793 215.106 -5.55112e-17
288 1 15.5927 206.96 -5.55112e-17
289 1 32.8465 193.501 -5.55112e-17
290 1 192.392 168.54 -5.55112e-17
291 1 104.904 164.023 -5.55112e-17
292 2 109.956 148.075 -5.55112e-17
293 2 49.4469 64.5394 -5.55112e-17
294 1 75.3323 189.98 -5.55112e-17
295 1 172.731 59.0944 -5.55112e-17
296 1 119.414 145.317 -5.55112e-17
297 1 191.739 93.0115 -5.55112e-17
298 1 215.6 104 -5.55112e-17
299 1 35.1849 182.406 -5.55112e-17
300 2 198.854 40.715 -5.55112e-17
301 1 84.8372 52.9852 -5.55112e-17
302 1 112.643 146.542 -5.55112e-17
303 2 58.2117 100.726 -5.55112e-17
304 2 56.311 137.206 -5.55112e-17
305 1 51.6338 209.508 -5.55112e-17
306 1 159.574 103.96 -5.55112e-17
307 1 32.8348 115.435 -5.55112e-17
308 1 137.071 7.65312 -5.55112e-17
309 2 26.3524 144.018 -5.55112e-17
310 1 0.207515 114.779 -5.55112e-17
311 1 131.905 104.94 -5.55112e-17
312 1 82.1219 144.268 -5.55112e-17
313 2 40.7401 161.003 -5.55112e-17
314 1 193.87 3.10152 -5.55112e-17
315 1 169.414 115.733 -5.55112e-17
316 1 218.956 142.674 -5.55112e-17
317 1 93.1768 117.811 -5.55112e-17
318 1 99.6717 53.0815 -5.55112e-17
319 1 99.7145 193.171 -5.55112e-17
320 1 135.935 83.8623 -5.55112e-17
321 1 8.19762 42.0028 -5.55112e-17
322 1 84.6456 124.779 -5.55112e-17
323 1 216.867 151.387 -5.55112e-17
324 1 164.459 154.609 -5.55112e-17
325 1 83.3585 199.165 -5.55112e-17
326 1 95.4523 131.277 -5.55112e-17
327 2 82.6386 212.354 -5.55112e-17
328 1 99.4439 115.903 -5.55112e-17
329 2 85.6408 167.637 -5.55112e-17
330 1 217.696 45.1816 -5.55112e-17
331 1 71.0669 76.5936 -5.55112e-17
332 2 42.7034 154.534 -5.55112e-17
333 1 185.321 91.6772 -5.55112e-17
334 1 29.0922 33.0987 -5.55112e-17
335 1 8.66468 44.6636 -5.55112e-17
336 1 25.1457 105.801 -5.55112e-17
337 1 148.895 43.7924 -5.55112e-17
338 1 191.236 18.6811 -5.55112e-17
339 1 135.11 177.305 -5.55112e-17
340 1 44.2373 205.817 -5.55112e-17
341 1 172.306 15.7344 -5.55112e-17
342 1 190.412 140.345 -5.55112e-17
343 1 143.459 18.2818 -5.55112e-17
344 1 60.4282 213.19 -5.55112e-17
345 1 21.1787 152.839 -5.55112e-17
346 1 194.26 112.984 -5.55112e-17
347 1 2.14706 141.246 -5.55112e-17
348 1 187.449 22.7281 -5.55112e-17
349 1 46.7732 182.469 -5.55112e-17
350 2 179.995 110.155 -5.55112e-17
351 1 52.9022 149.914 -5.55112e-17
352 1 2.02632 29.3104 -5.55112e-17
353 1 95.2416 107.227 -5.55112e-17
354 1 125.348 186.31 -5.55112e-17
355 1 200.306 97.158 -5.55112e-17
356 1 105.396 206.435 -5.55112e-17
357 1 172.695 124.363 -5.55112e-17
358 1 17.3208 25.9161 -5.55112e-17
359 1 141.553 35.2799 -5.55112e-17
360 1 12.3402 9.0345 -5.55112e-17
361 1 151.339 31.5026 -5.55112e-17
362 1 17.2755 61.9986 -5.55112e-17
363 1 17.4888 123.797 -5.55112e-17
364 2 173.134 76.7463 -5.55112e-17
365 1 137.845 148.227 -5.55112e-17
366 1 89.0664 88.5616 -5.55112e-17
367 1 35.6804 98.5382 -5.55112e-17
368 1 124.48 81.3362 -5.55112e-17
369 2 128.391 185.345 -5.55112e-17
370 1 55.215 3.16054 -5.55112e-17
371 1 166.642 69.1963 -5.55112e-17
372 2 90.6948 116.391 -5.55112e-17
373 2 6.31692 183.124 -5.55112e-17
374 1 91.2015 90.7352 -5.55112e-17
375 1 114.063 11.3116 -5.55112e-17
376 1 174.26 191.874 -5.55112e-17
377 1 43.715 133.63 -5.55112e-17
378 1 54.9484 36.2684 -5.55112e-17
379 1 81.2611 30.2212 -5.55112e-17
380 1 61.1134 47.6742 -5.55112e-17
381 1 170.805 188.331 -5.55112e-17
382 1 183.067 134.299 -5.55112e-17
383 1 71.9317 4.11777 -5.55112e-17
384 1 38.0212 217.73 -5.55112e-17
385 1 167.832 62.484 -5.55112e-17
386 2 164.037 41.9763 -5.55112e-17
387 1 204.84 186.712 -5.55112e-17
388 1 197.608 158.26 -5.55112e-17
389 1 160.006 96.9717 -5.55112e-17
390 2 74.131 56.9414 -5.55112e-17
391 2 1.66281 192.747 -5.55112e-17
392 1 195.754 156.896 -5.55112e-17
393 1 171.034 138.805 -5.55112e-17
394 1 181.012 3.1462 -5.55112e-17
395 1 154.937 178.06 -5.55112e-17
396 1 95.0212 54.495 -5.55112e-17
397 1 204.918 142.673 -5.55112e-17
398 1 42.3376 34.8464 -5.55112e-17
399 1 163.947 179.944 -5.55112e-17
400 1 64.6129 40.9361 -5.55112e-17
401 1 45.0936 55.084 -5.55112e-17
402 2 45.9635 203.494 -5.55112e-17
403 1 208.758 195.571 -5.55112e-17
404 1 60.4639 169.838 -5.55112e-17
405 1 63.4066 84.241 -5.55112e-17
406 1 172.242 43.5037 -5.55112e-17
407 2 196.388 190.12 -5.55112e-17
408 1 177.364 195.391 -5.55112e-17
409 1 62.8422 135.424 -5.55112e-17
410 1 138.064 95.656 -5.55112e-17
411 1 124.157 14.4219 -5.55112e-17
412 1 147.94 112.842 -5.55112e-17
413 1 55.4148 190.121 -5.55112e-17
414 1 109.943 204.999 -5.55112e-17
415 1 138.202 111.897 -5.55112e-17
416 1 46.8062 80.4231 -5.55112e-17
417 1 151.119 137.602 -5.55112e-17
418 2 198.564 52.9015 -5.55112e-17
419 1 15.586 41.3005 -5.55112e-17
420 2 57.1286 180.41 -5.55112e-17
421 1 207.239 166.283 -5.55112e-17
422 1 91.7158 35.6419 -5.55112e-17
423 2 4.39589 115.1 -5.55112e-17
424 1 212.251 70.2753 -5.55112e-17
425 1 158.386 81.0202 -5.55112e-17
426 1 131.597 150.155 -5.55112e-17
427 1 213.134 42.7953 -5.55112e-17
428 1 19.9489 114.104 -5.55112e-17
429 1 190.291 27.0238 -5.55112e-17
430 1 131.76 76.8599 -5.55112e-17
431 1 176.661 192.731 -5.55112e-17
432 1 169.423 193.888 -5.55112e-17
433 1 80.8649 108.121 -5.55112e-17
434 1 2.77535 51.6788 -5.55112e-17
435 1 17.594 112.943 -5.55112e-17
436 1 43.3859 175.431 -5.55112e-17
437 1 149.101 10.4864 -5.55112e-17
438 2 84.1202 2.23731 -5.55112e-17
439 1 5.19261 3.62807 -5.55112e-17
440 1 119.298 93.7419 -5.55112e-17
441 1 129.237 150.076 -5.55112e-17
442 1 24.5842 23.4294 -5.55112e-17
443 1 108.463 202.681 -5.55112e-17
444 1 152.711 92.2354 -5.55112e-17
445 1 127.871 25.4385 -5.55112e-17
446 1 66.0126 98.3155 -5.55112e-17
447 1 96.8538 11.0245 -5.55112e-17
448 1 179.357 8.94335 -5.55112e-17
449 1 160.638 120.339 -5.55112e-17
450 1 6.15741 65.0511 -5.55112e-17
451 1 194.901 168.856 -5.55112e-17
452 1 181.8 185.669 -5.55112e-17
453 1 33.8199 120.153 -5.55112e-17
454 1 6.78411 160.37 -5.55112e-17
455 1 104.09 216.609 -5.55112e-17
456 1 146.912 77.8288 -5.55112e-17
457 1 26.6327 137.418 -5.55112e-17
458 1 100.044 167.379 -5.55112e-17
459 1 60.0436 130.177 -5.55112e-17
460 1 55.5154 73.0397 -5.55112e-17
461 1 83.8704 70.236 -5.55112e-17
462 1 5.40347 16.3184 -5.55112e-17
463 1 168.132 117.601 -5.55112e-17
464 1 12.7634 84.2375 -5.55112e-17
465 1 32.4977 50.6081 -5.55112e-17
466 1 74.4824 183.108 -5.55112e-17
467 1 75.5277 107.468 -5.55112e-17
468 1 27.9985 73.042 -5.55112e-17
469 1 161.207 46.536 -5.55112e-17
470 1 183.543 25.6858 -5.55112e-17
471 1 90.4871 145.39 -5.55112e-17
472 1 123.957 109.282 -5.55112e-17
473 1 41.8072 120.518 -5.55112e-17
474 1 150.679 33.8833 -5.55112e-17
475 1 191.33 184.331 -5.55112e-17
476 2 157.574 151.79 -5.55112e-17
477 1 59.7205 210.417 -5.55112e-17
478 1 31.8303 14.1 -5.55112e-17
479 1 154.723 183.717 -5.55112e-17
480 1 136.271 2.27654 -5.55112e-17
481 1 111.193 86.8571 -5.55112e-17
482 1 200.277 209.113 -5.55112e-17
483 1 131.067 122.993 -5.55112e-17
484 2 171.099 105.526 -5.55112e-17
485 1 174.063 204.272 -5.55112e-17
486 1 198.145 2.41155 -5.55112e-17
487 1 183.044 83.6307 -5.55112e-17
488 1 201.041 148.594 -5.55112e-17
489 1 130.261 116.092 -5.55112e-17
490 1 55.4498 61.354 -5.55112e-17
491 1 124.026 51.4545 -5.55112e-17
492 1 38.4697 206.736 -5.55112e-17
493 1 138.198 53.3197 -5.55112e-17
494 1 89.1484 96.2849 -5.55112e-17
495 1 149.113 115.127 -5.55112e-17
496 2 35.4342 216.918 -5.55112e-17
497 1 72.4741 40.9295 -5.55112e-17
498 1 52.963 141.236 -5.55112e-17
499 2 80.0154 85.6393 -5.55112e-17
500 1 99.2603 98.4825 -5.55112e-17
501 2 160.002 195.625 -5.55112e-17
502 2 123.948 214.42 -5.55112e-17
503 1 79.4742 88.5038 -5.55112e-17
504 1 78.0607 107.659 -5.55112e-17
505 1 0.759035 53.13 -5.55112e-17
506 1 17.113 92.4246 -5.55112e-17
507 1 21.7794 56.0506 -5.55112e-17
508 1 153.217 179.708 -5.55112e-17
509 2 68.789 45.1729 -5.55112e-17
510 2 69.2927 207.289 -5.55112e-17
511 1 176.233 190.25 -5.55112e-17
512 2 110.945 178.592 -5.55112e-17
513 1 105.219 142.165 -5.55112e-17
514 1 25.8568 208.727 -5.55112e-17
515 1 32.5759 38.9474 -5.55112e-17
516 1 87.3859 93.9709 -5.55112e-17
517 1 59.0568 32.2449 -5.55112e-17
518 2 149.382 164.361 -5.55112e-17
519 1 81.0006 139.413 -5.55112e-17
520 2 100.98 190.855 -5.55112e-17
521 1 3.19648 8.78076 -5.55112e-17
522 1 126.041 49.8237 -5.55112e-17
523 1 164.825 193.384 -5.55112e-17
524 1 90.8176 21.8972 -5.55112e-17
525 1 137.614 216.895 -5.55112e-17
526 1 36.977 50.3024 -5.55112e-17
527 1 172.659 119.678 -5.55112e-17
528 1 46.9762 56.9134 -5.55112e-17
529 1 61.7194 152.916 -5.55112e-17
530 1 208.118 27.38 -5.55112e-17
531 1 191.049 164.344 -5.55112e-17
532 1 104.794 9.06849 -5.55112e-17
533 1 117.302 27.8054 -5.55112e-17
534 1 79.9477 121.616 -5.55112e-17
535 1 148.889 149.423 -5.55112e-17
536 1 142.848 127.18 -5.55112e-17
537 1 45.2665 194.059 -5.55112e-17
538 1 69.9842 47.7762 -5.55112e-17
539 1 186.133 186.565 -5.55112e-17
540 1 206.769 141.111 -5.55112e-17
541 1 0.807727 14.5791 -5.55112e-17
542 1 113.844 3.13367 -5.55112e-17
543 1 113.944 70.8572 -5.55112e-17
544 1 168.986 205.27 -5.55112e-17
545 1 52.797 60.4453 -5.55112e-17
546 1 152.713 182.293 -5.55112e-17
547 1 44.9702 4.60831 -5.55112e-17
548 1 9.92375 122.997 -5.55112e-17
549 1 60.1921 50.0164 -5.55112e-17
550 2 67.1856 40.159 -5.55112e-17
551 2 98.6529 170.032 -5.55112e-17
552 2 218.559 111.981 -5.55112e-17
553 1 54.6977 148.239 -5.55112e-17
554 1 51.2346 182.102 -5.55112e-17
555 2 44.7625 165.105 -5.55112e-17
556 1 90.7721 166.874 -5.55112e-17
557 1 135.616 79.5488 -5.55112e-17
558 1 39.6127 166.107 -5.55112e-17
559 1 25.8293 178.783 -5.55112e-17
560 1 91.2884 11.2483 -5.55112e-17
561 1 198.446 187.895 -5.55112e-17
562 1 28.6324 93.169 -5.55112e-17
563 2 116.449 136.629 -5.55112e-17
564 1 176.741 50.4627 -5.55112e-17
565 1 138.512 41.2982 -5.55112e-17
566 1 53.7939 210.729 -5.55112e-17
567 1 62.8367 168.908 -5.55112e-17
568 1 52.6764 27.4486 -5.55112e-17
569 1 190.99 58.9785 -5.55112e-17
570 1 59.141 78.7359 -5.55112e-17
571 1 113.065 102.943 -5.55112e-17
572 1 192.662 13.8623 -5.55112e-17
573 1 96.0236 59.3676 -5.55112e-17
574 1 167.334 212.472 -5.55112e-17
575 1 50.6009 22.2468 -5.55112e-17
576 1 60.3603 55.2041 -5.55112e-17
577 1 35.1761 91.0635 -5.55112e-17
578 1 115.816 58.9375 -5.55112e-17
579 1 213.213 83.6957 -5.55112e-17
580 1 128.153 8.24623 -5.55112e-17
581 1 167.734 113.699 -5.55112e-17
582 1 135.551 112.046 -5.55112e-17
583 1 147.487 187.338 -5.55112e-17
584 2 78.5831 77.6197 -5.55112e-17
585 1 122.411 17.0248 -5.55112e-17
586 1 87.68 84.252 -5.55112e-17
587 1 203.295 28.7175 -5.55112e-17
588 1 188.012 98.4317 -5.55112e-17
589 1 210.417 15.5974 -5.55112e-17
590 1 140.001 192.58 -5.55112e-17
591 1 113.518 46.8849 -5.55112e-17
592 1 192.898 160.08 -5.55112e-17
593 1 196.141 19.9307 -5.55112e-17
594 1 9.99354 216.851 -5.55112e-17
595 1 86.0537 118.694 -5.55112e-17
596 1 93.1657 27.945 -5.55112e-17
597 2 180.07 207.916 -5.55112e-17
598 1 93.6887 77.5417 -5.55112e-17
599 1 40.3373 118.229 -5.55112e-17
600 1 78.4224 61.6196 -5.55112e-17
601 1 217.97 194.28 -5.55112e-17
602 1 195.46 187.28 -5.55112e-17
603 1 97.2203 204.936 -5.55112e-17
604 1 180.74 57.086 -5.55112e-17
605 2 7.69204 207.765 -5.55112e-17
606 1 153.347 78.0088 -5.55112e-17
607 2 167.15 129.977 -5.55112e-17
608 1 180.864 129.997 -5.55112e-17
609 1 67.788 142.266 -5.55112e-17
610 1 173.153 86.3454 -5.55112e-17
611 1 85.1711 62.1437 -5.55112e-17
612 1 138.112 16.5424 -5.55112e-17
613 1 92.2783 153.382 -5.55112e-17
614 2 178.569 39.7366 -5.55112e-17
615 1 77.5521 211.369 -5.55112e-17
616 1 132.303 36.5739 -5.55112e-17
617 1 180.393 165.111 -5.55112e-17
618 1 1.88127 160.041 -5.55112e-17
619 1 51.317 71.7902 -5.55112e-17
620 1 59.2546 97.868 -5.55112e-17
621 1 94.8553 0.13764 -5.55112e-17
622 1 116.908 196.895 -5.55112e-17
623 1 78.706 216.261 -5.55112e-17
624 1 132.545 93.4215 -5.55112e-17
625 1 35.3996 122.793 -5.55112e-17
626 1 28.155 103.205 -5.55112e-17
627 1 191.767 64.6521 -5.55112e-17
628 1 134.62 35.4485 -5.55112e-17
629 1 174.391 194.194 -5.55112e-17
630 2 103.888 101.214 -5.55112e-17
631 1 105.912 128.089 -5.55112e-17
632 1 61.9823 117.611 -5.55112e-17
633 1 122.076 145.187 -5.55112e-17
634 1 187.179 20.5343 -5.55112e-17
635 1 194.978 35.675 -5.55112e-17
636 1 165.031 93.7939 -5.55112e-17
637 1 100.619 69.5059 -5.55112e-17
638 1 180.1 202.857 -5.55112e-17
639 2 1.30547 44.1621 -5.55112e-17
640 1 191.73 86.0894 -5.55112e-17
641 1 162.335 57.895 -5.55112e-17
642 1 192.972 47.3802 -5.55112e-17
643 2 119.227 211.966 -5.55112e-17
644 1 109.306 89.5748 -5.55112e-17
645 1 153.959 37.9947 -5.55112e-17
646 2 157.588 176.655 -5.55112e-17
647 1 112.46 205.671 -5.55112e-17
648 1 208.522 11.3003 -5.55112e-17
649 2 167.589 37.606 -5.55112e-17
650 1 179.987 72.9328 -5.55112e-17
651 1 62.4854 71.1236 -5.55112e-17
652 1 136.692 129.998 -5.55112e-17
653 1 150.236 84.4658 -5.55112e-17
654 1 44.2405 120.421 -5.55112e-17
655 2 88.2014 156.354 -5.55112e-17
656 1 141.431 72.724 -5.55112e-17
657 2 109.716 74.506 -5.55112e-17
658 1 125.862 72.4619 -5.55112e-17
659 2 192.389 56.5884 -5.55112e-17
660 1 187.581 81.793 -5.55112e-17
661 1 175.466 78.8673 -5.55112e-17
662 1 171.286 147.814 -5.55112e-17
663 1 85.942 183.812 -5.55112e-17
664 1 215.282 9.73532 -5.55112e-17
665 1 111.552 203.258 -5.55112e-17
666 2 212.977 67.1693 -5.55112e-17
667 1 62.452 196.738 -5.55112e-17
668 2 20.4804 9.13613 -5.55112e-17
669 1 107.428 46.8937 -5.55112e-17
670 1 17.2166 51.0304 -5.55112e-17
671 2 154.598 59.1981 -5.55112e-17
672 1 76.9417 10.7244 -5.55112e-17
673 1 202.126 158.258 -5.55112e-17
674 1 186.141 140.405 -5.55112e-17
675 1 91.0119 169.386 -5.55112e-17
676 1 9.68945 5.53692 -5.55112e-17
677 1 169.416 171.77 -5.55112e-17
678 1 218.127 34.8643 -5.55112e-17
679 2 11.0618 132.04 -5.55112e-17
680 1 70.7284 192.62 -5.55112e-17
681 2 216.484 18.8662 -5.55112e-17
682 1 74.0358 100.705 -5.55112e-17
683 1 4.33661 164.117 -5.55112e-17
684 1 31.7468 175.074 -5.55112e-17
685 1 21.5414 109.171 -5.55112e-17
686 1 38.9155 20.8858 -5.55112e-17
687 1 65.5743 57.4715 -5.55112e-17
688 1 51.2622 62.4186 -5.55112e-17
689 2 8.53555 39.306 -5.55112e-17
690 1 62.8467 141.393 -5.55112e-17
691 1 27.6247 90.746 -5.55112e-17
692 1 180.962 98.0603 -5.55112e-17
693 1 127.1 54.7788 -5.55112e-17
694 1 33.8333 124.776 -5.55112e-17
695 1 159.49 23.2486 -5.55112e-17
696 1 26.7778 216.022 -5.55112e-17
697 1 172.923 176.765 -5.55112e-17
698 1 152.253 135.752 -5.55112e-17
699 1 163.295 152.16 -5.55112e-17
700 1 4.24163 123.445 -5.55112e-17
701 1 199.682 73.7756 -5.55112e-17
702 1 104.314 41.5336 -5.55112e-17
703 2 113.145 167.883 -5.55112e-17
704 1 178.504 134.261 -5.55112e-17
705 2 18.8548 78.7377 -5.55112e-17
706 1 99.4419 30.7626 -5.55112e-17
707 1 90.5295 47.2532 -5.55112e-17
708 1 61.0877 139.368 -5.55112e-17
709 1 60.9919 88.2352 -5.55112e-17
710 1 122.414 170.952 -5.55112e-17
711 1 204.747 17.9255 -5.55112e-17
712 1 143.957 68.2097 -5.55112e-17
713 1 91.5758 172.429 -5.55112e-17
714 1 62.2853 41.6144 -5.55112e-17
715 1 215.851 67.4948 -5.55112e-17
716 1 52.3767 0.340545 -5.55112e-17
717 1 42.9561 113.635 -5.55112e-17
718 1 62.8616 51.2089 -5.55112e-17
719 2 169.756 124.257 -5.55112e-17
720 1 114.263 97.8222 -5.55112e-17
721 1 202.99 170.371 -5.55112e-17
722 1 52.5032 156.377 -5.55112e-17
723 2 46.2507 123.422 -5.55112e-17
724 1 49.3806 111.627 -5.55112e-17
725 1 205.73 214.929 -5.55112e-17
726 1 142.936 118.908 -5.55112e-17
727 1 53.7984 38.6026 -5.55112e-17
728 2 148.417 136.42 -5.55112e-17
729 1 52.5118 36.3911 -5.55112e-17
730 1 119.766 167.226 -5.55112e-17
731 1 27.671 116.053 -5.55112e-17
732 1 136.256 52.2629 -5.55112e-17
733 1 196.047 207.724 -5.55112e-17
734 1 204.556 4.10571 -5.55112e-17
735 1 156.623 218.049 -5.55112e-17
736 2 39.948 148.989 -5.55112e-17
737 1 77.7287 194.93 -5.55112e-17
738 1 125.598 200.91 -5.55112e-17
739 1 198.213 131.37 -5.55112e-17
740 1 2.35511 49.1131 -5.55112e-17
741 2 80.0165 105.157 -5.55112e-17
742 1 50.8291 109.355 -5.55112e-17
743 1 197.659 209.617 -5.55112e-17
744 2 110.722 77.8283 -5.55112e-17
745 1 119.526 132.83 -5.55112e-17
746 1 12.6481 167.866 -5.55112e-17
747 2 60.9877 120.278 -5.55112e-17
748 1 156.123 215.518 -5.55112e-17
749 1 82.5346 114.422 -5.55112e-17
750 1 30.1135 184.6 -5.55112e-17
751 1 194.388 22.0589 -5.55112e-17
752 1 100.232 50.7224 -5.55112e-17
753 1 177.164 1.96313 -5.55112e-17
754 1 14.6902 100.571 -5.55112e-17
755 1 104.886 110.664 -5.55112e-17
756 2 104.746 5.98515 -5.55112e-17
757 1 7.15361 24.1012 -5.55112e-17
758 1 133.384 184.268 -5.55112e-17
759 1 159.235 112.984 -5.55112e-17
760 1 151.903 115.215 -5.55112e-17
761 1 213.553 148.081 -5.55112e-17
762 1 1.53844 185.348 -5.55112e-17
763 1 216.208 76.8964 -5.55112e-17
764 2 29.7976 21.5524 -5.55112e-17
765 1 147.063 143.108 -5.55112e-17
766 1 85.8381 139.868 -5.55112e-17
767 1 166.589 204.875 -5.55112e-17
768 1 142.402 113.525 -5.55112e-17
769 1 4.62886 196.663 -5.55112e-17
770 2 132.442 27.4653 -5.55112e-17
771 1 187.178 195.675 -5.55112e-17
772 1 89.0893 12.7083 -5.55112e-17
773 1 117.035 82.7205 -5.55112e-17
774 1 191.32 213.814 -5.55112e-17
775 1 145.509 90.2578 -5.55112e-17
776 1 134.892 86.3157 -5.55112e-17
777 1 166.202 119.75 -5.55112e-17
778 1 34.5693 63.7521 -5.55112e-17
779 1 189.809 74.411 -5.55112e-17
780 1 210.648 191.185 -5.55112e-17
781 1 91.2245 125.289 -5.55112e-17
782 1 118.195 85.3826 -5.55112e-17
783 1 21.887 50.9116 -5.55112e-17
784 2 140.793 17.7756 -5.55112e-17
785 1 92.2306 204.386 -5.55112e-17
786 1 0.233904 182.183 -5.55112e-17
787 1 171.543 84.3394 -5.55112e-17
788 1 185.477 27.1801 -5.55112e-17
789 2 212.854 124.463 -5.55112e-17
790 1 186.542 168.88 -5.55112e-17
791 2 34.1134 57.0178 -5.55112e-17
792 2 159.491 62.2415 -5.55112e-17
793 2 6.5184 95.857 -5.55112e-17
794 1 130.759 157.482 -5.55112e-17
795 1 26.9605 75.374 -5.55112e-17
796 1 28.3003 131.628 -5.55112e-17
797 1 107.195 6.84014 -5.55112e-17
798 2 21.7999 59.1886 -5.55112e-17
799 2 166.492 3.57965 -5.55112e-17
800 2 117.241 67.1492 -5.55112e-17
801 1 76.5154 28.6478 -5.55112e-17
802 1 190.427 195.615 -5.55112e-17
803 1 159.424 86.0262 -5.55112e-17
804 2 41.7909 85.5692 -5.55112e-17
805 1 64.9228 195.924 -5.55112e-17
806 1 92.7314 162.392 -5.55112e-17
807 2 190.506 100.419 -5.55112e-17
808 1 113.312 23.8944 -5.55112e-17
809 2 181.986 167.7 -5.55112e-17
810 1 23.1838 85.1537 -5.55112e-17
811 1 119.583 216.858 -5.55112e-17
812 1 148.233 62.2142 -5.55112e-17
813 2 217.99 199.196 -5.55112e-17
814 1 99.4587 65.0881 -5.55112e-17
815 1 34.4917 13.6454 -5.55112e-17
816 1 96.5533 146.303 -5.55112e-17
817 1 188.774 193.856 -5.55112e-17
818 1 50.0821 37.0338 -5.55112e-17
819 1 53.1672 93.4427 -5.55112e-17
820 1 178.765 173.936 -5.55112e-17
821 1 123.538 195.284 -5.55112e-17
822 2 118.243 56.2499 -5.55112e-17
823 2 91.8127 103.503 -5.55112e-17
824 1 20.3261 73.8599 -5.55112e-17
825 1 204.035 9.00885 -5.55112e-17
826 1 164.96 146.045 -5.55112e-17
827 1 30.4482 150.728 -5.55112e-17
828 1 115.311 79.6399 -5.55112e-17
829 1 168.613 127.015 -5.55112e-17
830 1 12.2671 69.0124 -5.55112e-17
831 1 85.4273 135.026 -5.55112e-17
832 1 138.672 102.494 -5.55112e-17
833 1 128.166 91.0638 -5.55112e-17
834 1 7.96336 63.4209 -5.55112e-17
835 1 19.9456 38.4246 -5.55112e-17
836 1 115.898 99.7175 -5.55112e-17
837 1 182.588 148.141 -5.55112e-17
838 1 26.0409 97.0092 -5.55112e-17
839 2 39.0532 26.0436 -5.55112e-17
840 1 132.575 189.454 -5.55112e-17
841 2 160.599 134.116 -5.55112e-17
842 1 79.613 159.763 -5.55112e-17
843 2 118.239 12.604 -5.55112e-17
844 1 6.8187 92.906 -5.55112e-17
845 1 208.777 89.6307 -5.55112e-17
846 1 131.841 100.105 -5.55112e-17
847 1 120.618 84.8007 -5.55112e-17
848 1 180.247 178.219 -5.55112e-17
849 1 188.88 42.4939 -5.55112e-17
850 1 70.2238 52.4241 -5.55112e-17
851 1 168.299 85.5665 -5.55112e-17
852 1 150.421 97.6238 -5.55112e-17
853 1 175.057 36.2415 -5.55112e-17
854 1 183.516 56.7602 -5.55112e-17
855 1 49.2932 145.786 -5.55112e-17
856 1 168.85 40.6506 -5.55112e-17