ITEM: TIMESTEP
0
ITEM: NUMBER OF ATOMS
7200
ITEM: BOX BOUNDS xy xz yz pp pp pp
0.0000000000000000e+00 2.1900000000000000e+02 0.0000000000000000e+00
0.0000000000000000e+00 2.1900000000000000e+02 0.0000000000000000e+00
-3.6499999999999999e-01 3.6499999999999999e-01 0.0000000000000000e+00
ITEM: ATOMS id type x y z
1 1 72.7618 129.083 -5.55112e-17
2 1 47.7797 140.182 -5.55112e-17
3 1 17.8918 167.868 -5.55112e-17
4 1 187.312 120.499 -5.55112e-17
5 1 60.9437 25.953 -5.55112e-17
6 1 166.013 135.241 -5.55112e-17
7 1 122.771 116.794 -5.55112e-17
8 2 100.52 128.457 -5.55112e-17
9 1 26.4389 154.344 -5.55112e-17
10 2 201.105 17.8473 -5.55112e-17
11 1 3.23288 121.18 -5.55112e-17
12 1 209.297 58.2242 -5.55112e-17
13 2 112.502 47.9709 -5.55112e-17
14 1 42.9181 214.559 -5.55112e-17
15 1 48.6463 14.5526 -5.55112e-17
16 2 89.5872 45.3407 -5.55112e-17
17 1 17.8591 132.903 -5.55112e-17
18 2 198.889 39.7168 -5.55112e-17
19 1 33.2213 67.7496 -5.55112e-17
20 1 43.6523 11.9917 -5.55112e-17
21 1 159.506 206.86 -5.55112e-17
22 2 1.08128 194.65 -5.55112e-17
23 2 53.0933 146.383 -5.55112e-17
24 1 56.1839 214.46 -5.55112e-17
25 1 140.962 59.389 -5.55112e-17
26 2 38.1044 147.285 -5.55112e-17
27 1 79.1511 78.014 -5.55112e-17
28 2 6.40238 31.9197 -5.55112e-17
29 1 89.3218 14.2871 -5.55112e-17
30 1 129.285 54.7391 -5.55112e-17
31 1 120.07 132.086 -5.55112e-17
32 1 60.981 164.145 -5.55112e-17
33 1 205.518 8.16737 -5.55112e-17
34 1 113.844 154.053 -5.55112e-17
35 1 5.82148 169.981 -5.55112e-17
36 1 101.155 111.792 -5.55112e-17
37 2 78.2113 7.48817 -5.55112e-17
38 1 85.6759 122.403 -5.55112e-17
39 1 198.946 130.999 -5.55112e-17
40 1 56.3685 23.5971 -5.55112e-17
41 1 77.0379 13.5482 -5.55112e-17
42 1 171.979 101.491 -5.55112e-17
43 1 31.8301 86.9253 -5.55112e-17
44 1 183.658 118.157 -5.55112e-17
45 1 183.959 196.524 -5.55112e-17
46 1 0.260281 46.3924 -5.55112e-17
47 1 53.3143 53.2298 -5.55112e-17
48 2 63.136 142.203 -5.55112e-17
49 1 42.5643 91.5847 -5.55112e-17
50 1 90.6432 162.571 -5.55112e-17
51 1 11.7585 65.9993 -5.55112e-17
52 1 108.804 78.3155 -5.55112e-17
53 1 216.819 19.7877 -5.55112e-17
54 1 1.28624 48.8573 -5.55112e-17
55 1 46.9694 21.3776 -5.55112e-17
56 1 22.7209 209.946 -5.55112e-17
57 2 15.4121 176.252 -5.55112e-17
58 1 76.1476 103.791 -5.55112e-17
59 1 11.2943 113.012 -5.55112e-17
60 2 216.81 5.71951 -5.55112e-17
61 2 82.718 117.867 -5.55112e-17
62 1 93.1808 149.558 -5.55112e-17
63 1 31.9522 1.09931 -5.55112e-17
64 1 132.206 90.0515 -5.55112e-17
65 1 135.854 118.686 -5.55112e-17
66 1 145.58 151.188 -5.55112e-17
67 1 212.825 152.707 -5.55112e-17
68 1 85.563 107.711 -5.55112e-17
69 1 7.56921 133.262 -5.55112e-17
70 1 183.81 37.9843 -5.55112e-17
71 1 172.07 104.719 -5.55112e-17
72 1 128.588 208.117 -5.55112e-17
73 1 37.9825 98.6161 -5.55112e-17
74 1 152.943 84.5764 -5.55112e-17
75 2 128.678 99.6361 -5.55112e-17
76 1 193.696 147.015 -5.55112e-17
77 1 103.977 64.4224 -5.55112e-17
78 1 137.143 19.6188 -5.55112e-17
79 2 128.493 191.944 -5.55112e-17
80 1 83.5401 60.8035 -5.55112e-17
81 1 36.013 189.886 -5.55112e-17
82 1 215.564 189.311 -5.55112e-17
83 2 58.0226 42.4858 -5.55112e-17
84 1 137.077 113.645 -5.55112e-17
85 1 210.698 126.171 -5.55112e-17
86 1 1.20227 33.9424 -5.55112e-17
87 1 98.165 192.635 -5.55112e-17
88 1 80.908 61.6363 -5.55112e-17
89 2 181.528 134.081 -5.55112e-17
90 2 148.789 53.5277 -5.55112e-17
91 1 116.238 133.38 -5.55112e-17
92 2 56.7871 174.765 -5.55112e-17
93 1 0.591058 98.389 -5.55112e-17
94 2 182.63 147.108 -5.55112e-17
95 1 147.637 41.8415 -5.55112e-17
96 1 147.144 46.5161 -5.55112e-17
97 1 154.372 217.315 -5.55112e-17
98 1 122.301 66.6709 -5.55112e-17
99 1 5.09917 139.548 -5.55112e-17
100 1 118.222 210.877 -5.55112e-17
101 1 0.94415 204.311 -5.55112e-17
102 1 14.213 44.125 -5.55112e-17
103 1 21.1484 214.705 -5.55112e-17
104 1 193.128 127.532 -5.55112e-17
105 1 21.8891 88.5229 -5.55112e-17
106 1 15.8654 137.151 -5.55112e-17
107 2 148.641 108.063 -5.55112e-17
108 1 37.4829 159.922 -5.55112e-17
109 1 130.099 172.868 -5.55112e-17
110 1 104.622 16.0381 -5.55112e-17
111 1 190.971 132.188 -5.55112e-17
112 1 38.9973 48.1865 -5.55112e-17
113 1 218.531 93.5322 -5.55112e-17
114 1 144.015 37.8762 -5.55112e-17
115 1 207.671 156.541 -5.55112e-17
116 2 181.901 166.176 -5.55112e-17
117 1 69.395 63.8402 -5.55112e-17
118 1 26.0175 107.714 -5.55112e-17
119 2 100.722 1.25725 -5.55112e-17
120 1 149.929 121.071 -5.55112e-17
121 1 120.108 206.286 -5.55112e-17
122 1 12.6907 31.5311 -5.55112e-17
123 1 67.419 11.57 -5.55112e-17
124 1 68.3343 158.254 -5.55112e-17
125 1 204.102 89.5442 -5.55112e-17
126 1 80.5336 152.165 -5.55112e-17
127 1 95.7908 72.9242 -5.55112e-17
128 1 29.5241 180.809 -5.55112e-17
129 1 50.5659 151.47 -5.55112e-17
130 1 205.46 216.282 -5.55112e-17
131 1 109.619 47.4007 -5.55112e-17
132 2 140.978 89.8758 -5.55112e-17
133 1 164.717 100.912 -5.55112e-17
134 1 194.224 64.8442 -5.55112e-17
135 1 88.2894 1.30965 -5.55112e-17
136 1 4.57015 54.3846 -5.55112e-17
137 1 217.745 103.143 -5.55112e-17
138 1 34.8894 69.9216 -5.55112e-17
139 1 52.69 172.02 -5.55112e-17
140 2 109.496 206.131 -5.55112e-17
141 1 90.5552 65.8897 -5.55112e-17
142 2 60.051 12.4647 -5.55112e-17
143 1 192.173 118.736 -5.55112e-17
144 2 160.449 98.0343 -5.55112e-17
145 1 191.835 0.451911 -5.55112e-17
146 1 136.468 124.06 -5.55112e-17
147 1 126.66 143.438 -5.55112e-17
148 1 95.8736 79.4255 -5.55112e-17
149 1 154.76 193.903 -5.55112e-17
150 1 66.2648 69.5308 -5.55112e-17
151 1 106.122 77.8097 -5.55112e-17
152 1 43.6181 38.0279 -5.55112e-17
153 2 27.556 28.4495 -5.55112e-17
154 1 8.72854 40.1658 -5.55112e-17
155 1 53.7231 30.8377 -5.55112e-17
156 2 30.136 59.1183 -5.55112e-17
157 1 26.1169 57.38 -5.55112e-17
158 1 171.235 193.11 -5.55112e-17
159 1 41.9662 114.633 -5.55112e-17
160 1 178.189 16.6854 -5.55112e-17
161 1 127.441 124.783 -5.55112e-17
162 1 98.7482 203.987 -5.55112e-17
163 1 163.569 3.86469 -5.55112e-17
164 1 184.609 40.5161 -5.55112e-17
165 1 65.5873 6.9831 -5.55112e-17
166 2 107.008 211.009 -5.55112e-17
167 1 4.07976 149.679 -5.55112e-17
168 1 165.353 202.535 -5.55112e-17
169 1 53.6748 110.989 -5.55112e-17
170 1 11.6592 107.863 -5.55112e-17
171 1 103.637 57.6602 -5.55112e-17
172 1 8.68286 25.0493 -5.55112e-17
173 1 119.954 59.1896 -5.55112e-17
174 1 184.605 142.42 -5.55112e-17
175 2 38.5925 199.861 -5.55112e-17
176 1 15.9728 42.1769 -5.55112e-17
177 2 54.8091 132.642 -5.55112e-17
178 1 186.365 11.7278 -5.55112e-17
179 1 77.078 34.0133 -5.55112e-17
180 1 165.299 151.176 -5.55112e-17
181 1 32.2568 143.27 -5.55112e-17
182 2 11.0335 194.239 -5.55112e-17
183 1 173.362 44.7636 -5.55112e-17
184 1 157.957 204.782 -5.55112e-17
185 2 157.229 124.164 -5.55112e-17
186 2 202.606 152.458 -5.55112e-17
187 1 39.5079 34.9954 -5.55112e-17
188 1 187.23 54.9731 -5.55112e-17
189 1 161.073 166.605 -5.55112e-17
190 2 13.4578 90.8561 -5.55112e-17
191 1 157.115 145.499 -5.55112e-17
192 2 72.769 135.416 -5.55112e-17
193 2 209.284 131.494 -5.55112e-17
194 1 26.2571 203.279 -5.55112e-17
195 1 33.451 29.6397 -5.55112e-17
196 1 24.6926 28.0867 -5.55112e-17
197 1 191.313 67.5941 -5.55112e-17
198 2 108.706 0.209381 -5.55112e-17
199 1 200.944 202.063 -5.55112e-17
200 1 38.4213 6.10605 -5.55112e-17
201 2 151.736 218.082 -5.55112e-17
202 1 13.5179 58.8599 -5.55112e-17
203 1 165.611 27.501 -5.55112e-17
204 1 122.711 150.755 -5.55112e-17
205 2 188.618 32.9082 -5.55112e-17
206 1 112.417 54.0991 -5.55112e-17
207 1 203.986 192.296 -5.55112e-17
208 1 101.784 211.848 -5.55112e-17
209 1 29.2648 40.6312 -5.55112e-17
210 1 203.658 117.138 -5.55112e-17
211 2 105.635 170.908 -5.55112e-17
212 1 31.4936 212.047 -5.55112e-17
213 1 129.17 136.579 -5.55112e-17
214 1 136.609 195.184 -5.55112e-17
215 1 131.071 132.266 -5.55112e-17
216 1 12.4399 2.59436 -5.55112e-17
217 1 125.473 81.5781 -5.55112e-17
218 2 92.8712 208.232 -5.55112e-17
219 1 131.897 198.275 -5.55112e-17
220 2 68.9002 168.501 -5.55112e-17
221 1 202.784 31.6594 -5.55112e-17
222 1 22.4511 157.676 -5.55112e-17
223 1 101.326 52.3434 -5.55112e-17
224 2 173.692 137.614 -5.55112e-17
225 1 203.655 98.022 -5.55112e-17
226 1 205.605 114.921 -5.55112e-17
227 2 122.156 99.7225 -5.55112e-17
228 1 169.489 204.141 -5.55112e-17
229 1 178.693 127.144 -5.55112e-17
230 1 164.143 41.0709 -5.55112e-17
231 1 9.33519 108.587 -5.55112e-17
232 1 55.9446 155.974 -5.55112e-17
233 1 21.0632 93.1324 -5.55112e-17
234 1 80.5691 155.033 -5.55112e-17
235 1 61.736 62.7023 -5.55112e-17
236 1 166.01 137.669 -5.55112e-17
237 1 173.661 193.265 -5.55112e-17
238 1 130.247 25.462 -5.55112e-17
239 2 23.0444 204.626 -5.55112e-17
240 1 37.2805 183.999 -5.55112e-17
241 2 69.4234 58.8362 -5.55112e-17
242 2 109.367 18.917 -5.55112e-17
243 2 216.628 162.953 -5.55112e-17
244 1 101.2 152.967 -5.55112e-17
245 1 196.177 39.6521 -5.55112e-17
246 1 192.896 76.8031 -5.55112e-17
247 1 154.561 132.038 -5.55112e-17
248 1 92.2107 19.1065 -5.55112e-17
249 1 31.6023 131.084 -5.55112e-17
250 2 111.334 145.303 -5.55112e-17
251 1 153.714 153.314 -5.55112e-17
252 1 193.326 24.3908 -5.55112e-17
253 1 205.959 16.6871 -5.55112e-17
254 2 133.08 206.133 -5.55112e-17
255 1 123.66 27.1563 -5.55112e-17
256 1 169.948 17.7177 -5.55112e-17
257 1 195.424 188.778 -5.55112e-17
258 2 35.0257 19.4056 -5.55112e-17
259 1 53.8033 143.551 -5.55112e-17
260 1 193.151 154.326 -5.55112e-17
261 1 52.5194 207.623 -5.55112e-17
262 1 69.9154 130.496 -5.55112e-17
263 1 107.109 106.016 -5.55112e-17
264 1 47.792 204.159 -5.55112e-17
265 1 6.67253 181.904 -5.55112e-17
266 1 84.3166 189.14 -5.55112e-17
267 1 85.2305 19.4336 -5.55112e-17
268 1 105.12 142.398 -5.55112e-17
269 1 73.1419 207.543 -5.55112e-17
270 1 22.5785 162.536 -5.55112e-17
271 1 86.5128 218.407 -5.55112e-17
272 1 115.757 91.2964 -5.55112e-17
273 1 142.632 35.9599 -5.55112e-17
274 2 93.6919 81.1758 -5.55112e-17
275 1 39.4933 37.3133 -5.55112e-17
276 2 33.14 190.93 -5.55112e-17
277 2 62.4559 169.689 -5.55112e-17
278 1 11.404 120.908 -5.55112e-17
279 2 26.6417 7.70141 -5.55112e-17
280 1 173.276 111.497 -5.55112e-17
281 1 191.959 158.858 -5.55112e-17
282 1 20.4491 119.393 -5.55112e-17
283 1 65.0839 198.489 -5.55112e-17
284 1 2.1155 147.624 -5.55112e-17
285 1 30.2071 93.0263 -5.55112e-17
286 2 24.0191 198.939 -5.55112e-17
287 1 212.086 168.782 -5.55112e-17
288 1 96.2144 117.159 -5.55112e-17
289 1 68.5208 38.0757 -5.55112e-17
290 1 165.361 2.18135 -5.55112e-17
291 1 15.0336 205.092 -5.55112e-17
292 2 36.6428 46.7122 -5.55112e-17
293 2 159.618 21.2948 -5.55112e-17
294 1 54.643 113.493 -5.55112e-17
295 1 203.436 114.81 -5.55112e-17
296 1 14.225 14.0139 -5.55112e-17
297 1 216.731 98.8055 -5.55112e-17
298 1 200.408 36.8169 -5.55112e-17
299 1 13.7159 211.549 -5.55112e-17
300 2 19.8829 86.1307 -5.55112e-17
301 1 103.404 187.983 -5.55112e-17
302 1 127.895 80.9134 -5.55112e-17
303 2 30.7604 44.9328 -5.55112e-17
304 2 117.036 174.905 -5.55112e-17
305 1 55.6072 18.3705 -5.55112e-17
306 1 195.175 26.2812 -5.55112e-17
307 1 70.4697 173.596 -5.55112e-17
308 1 75.9513 152.146 -5.55112e-17
309 2 165.184 154.118 -5.55112e-17
310 1 6.65447 175.594 -5.55112e-17
311 1 57.6053 11.2826 -5.55112e-17
312 1 178.18 62.3277 -5.55112e-17
313 2 12.1959 19.6899 -5.55112e-17
314 1 202.455 1.01445 -5.55112e-17
315 1 184.938 116.023 -5.55112e-17
316 1 107.172 82.7665 -5.55112e-17
317 1 135.686 215.243 -5.55112e-17
318 1 106.136 35.017 -5.55112e-17
319 1 39.454 161.862 -5.55112e-17
320 1 155.93 140.343 -5.55112e-17
321 1 194.185 71.9516 -5.55112e-17
322 1 66.8921 144.919 -5.55112e-17
323 1 213.281 42.228 -5.55112e-17
324 1 64.8483 93.3192 -5.55112e-17
325 1 34.0364 213.382 -5.55112e-17
326 1 150.41 194.866 -5.55112e-17
327 2 156.832 22.3593 -5.55112e-17
328 1 68.6675 90.0408 -5.55112e-17
329 2 190.28 81.0223 -5.55112e-17
330 1 106.434 62.8769 -5.55112e-17
331 1 141.324 69.298 -5.55112e-17
332 2 210.359 104.66 -5.55112e-17
333 1 129.739 177.208 -5.55112e-17
334 1 183.948 0.409048 -5.55112e-17
335 1 147.559 141.624 -5.55112e-17
336 1 186.91 161.441 -5.55112e-17
337 1 60.8183 69.6374 -5.55112e-17
338 1 1.44239 180.908 -5.55112e-17
339 1 102.486 55.4522 -5.55112e-17
340 1 218.264 42.7514 -5.55112e-17
341 1 51.1507 144.465 -5.55112e-17
342 1 20.933 171.953 -5.55112e-17
343 1 0.664238 89.2715 -5.55112e-17
344 1 140.921 101.262 -5.55112e-17
345 1 137.548 48.9866 -5.55112e-17
346 1 190.459 50.2926 -5.55112e-17
347 1 70.7111 41.039 -5.55112e-17
348 1 18.5963 160.584 -5.55112e-17
349 1 91.335 69.8282 -5.55112e-17
350 2 51.0565 156.711 -5.55112e-17
351 1 178.772 101.735 -5.55112e-17
352 1 173.138 96.0873 -5.55112e-17
353 1 183.186 56.6633 -5.55112e-17
354 1 208.049 180.629 -5.55112e-17
355 1 79.9489 28.7419 -5.55112e-17
356 1 143.414 116.728 -5.55112e-17
357 1 49.4249 38.1469 -5.55112e-17
358 1 138.571 119.642 -5.55112e-17
359 1 141.267 157.444 -5.55112e-17
360 1 4.14142 92.6424 -5.55112e-17
361 1 11.044 63.7535 -5.55112e-17
362 1 198.951 148.417 -5.55112e-17
363 1 168.91 147.099 -5.55112e-17
364 2 214.276 205.401 -5.55112e-17
365 1 151.232 31.4932 -5.55112e-17
366 1 200.888 12.0076 -5.55112e-17
367 1 72.2537 5.1419 -5.55112e-17
368 1 9.9572 84.0582 -5.55112e-17
369 2 191.422 169.735 -5.55112e-17
370 1 118.756 124.791 -5.55112e-17
371 1 162.935 143.872 -5.55112e-17
372 2 41.665 21.1917 -5.55112e-17
373 2 143.327 105.985 -5.55112e-17
374 1 54.743 46.3865 -5.55112e-17
375 1 94.6069 46.1044 -5.55112e-17
376 1 138.879 196.257 -5.55112e-17
377 1 147.162 74.072 -5.55112e-17
378 1 79.9733 45.4572 -5.55112e-17
379 1 140.972 87.0932 -5.55112e-17
380 1 28.9554 42.9755 -5.55112e-17
381 1 175.534 144.727 -5.55112e-17
382 1 131.892 149.506 -5.55112e-17
383 1 6.86194 125.813 -5.55112e-17
384 1 116.207 190.255 -5.55112e-17
385 1 147.902 124.812 -5.55112e-17
386 2 103.207 185.113 -5.55112e-17
387 1 183.368 186.641 -5.55112e-17
388 1 206.773 120.042 -5.55112e-17
389 1 101.683 180.332 -5.55112e-17
390 2 199.076 112.882 -5.55112e-17
391 2 174.48 204.685 -5.55112e-17
392 1 215.014 29.6609 -5.55112e-17
393 1 12.188 197.123 -5.55112e-17
394 1 178.845 214.469 -5.55112e-17
395 1 31.1506 152.843 -5.55112e-17
396 1 20.9568 15.3222 -5.55112e-17
397 1 124.264 146.864 -5.55112e-17
398 1 115.094 201.954 -5.55112e-17
399 1 107.155 176.028 -5.55112e-17
400 1 215.145 187.097 -5.55112e-17
401 1 75.9118 149.654 -5.55112e-17
402 2 123.764 68.9891 -5.55112e-17
403 1 77.8268 196.689 -5.55112e-17
404 1 40.9325 5.9773 -5.55112e-17
405 1 77.9394 134.877 -5.55112e-17
406 1 161.996 77.0567 -5.55112e-17
407 2 114.141 169.326 -5.55112e-17
408 1 83.1169 114.897 -5.55112e-17
409 1 137.82 143.565 -5.55112e-17
410 1 189.86 114.775 -5.55112e-17
411 1 80.3946 86.161 -5.55112e-17
412 1 152.79 133.607 -5.55112e-17
413 1 202.474 181.517 -5.55112e-17
414 1 29.0034 202.051 -5.55112e-17
415 1 152.55 150.304 -5.55112e-17
416 1 164.78 104.741 -5.55112e-17
417 1 116.701 108.079 -5.55112e-17
418 2 130.807 80.1847 -5.55112e-17
419 1 28.4593 208.268 -5.55112e-17
420 2 218.053 28.3658 -5.55112e-17
421 1 209.738 142.146 -5.55112e-17
422 1 179.589 173.608 -5.55112e-17
423 2 124.39 120.023 -5.55112e-17
424 1 48.7997 17.047 -5.55112e-17
425 1 81.116 182.968 -5.55112e-17
426 1 172.59 55.6949 -5.55112e-17
427 1 188.75 7.37598 -5.55112e-17
428 1 130.523 187.387 -5.55112e-17
429 1 189.359 73.367 -5.55112e-17
430 1 47.0232 117.307 -5.55112e-17
431 1 36.2248 139.421 -5.55112e-17
432 1 86.5048 205.653 -5.55112e-17
433 1 32.6515 75.0079 -5.55112e-17
434 1 46.9101 84.8279 -5.55112e-17
435 1 215.515 49.7018 -5.55112e-17
436 1 212.211 99.7898 -5.55112e-17
437 1 12.7767 164.029 -5.55112e-17
438 2 100.772 122.966 -5.55112e-17
439 1 130.52 104.791 -5.55112e-17
440 1 157.542 16.3369 -5.55112e-17
441 1 12.362 27.2723 -5.55112e-17
442 1 118.073 61.1563 -5.55112e-17
443 1 208.995 165.299 -5.55112e-17
444 1 14.3284 166.054 -5.55112e-17
445 1 37.7737 127.052 -5.55112e-17
446 1 75.0281 130.195 -5.55112e-17
447 1 185.215 184.914 -5.55112e-17
448 1 102.339 87.283 -5.55112e-17
449 1 94.3945 16.7812 -5.55112e-17
450 1 11.7236 14.6989 -5.55112e-17
451 1 67.1561 200.389 -5.55112e-17
452 1 11.1938 92.2167 -5.55112e-17
453 1 141.286 185.53 -5.55112e-17
454 1 114.053 144.281 -5.55112e-17
455 1 115.595 44.0586 -5.55112e-17
456 1 125.546 132.358 -5.55112e-17
457 1 87.2969 193.887 -5.55112e-17
458 1 68.0397 106.567 -5.55112e-17
459 1 157.269 215.871 -5.55112e-17
460 1 193.915 28.5303 -5.55112e-17
461 1 90.0943 158.256 -5.55112e-17
462 1 30.3426 21.6176 -5.55112e-17
463 1 162.397 11.3667 -5.55112e-17
464 1 85.4241 43.3696 -5.55112e-17
465 1 211.428 92.1721 -5.55112e-17
466 1 198.708 10.5153 -5.55112e-17
467 1 55.1664 49.3248 -5.55112e-17
468 1 194.364 110.57 -5.55112e-17
469 1 160.784 181.913 -5.55112e-17
470 1 32.0863 98.035 -5.55112e-17
471 1 82.9495 5.93093 -5.55112e-17
472 1 60.4444 18.0909 -5.55112e-17
473 1 76.8403 126.1 -5.55112e-17
474 1 213.93 201.401 -5.55112e-17
475 1 161.508 215.254 -5.55112e-17
476 2 1.80401 215.038 -5.55112e-17
477 1 191.067 191.329 -5.55112e-17
478 1 181.565 26.2746 -5.55112e-17
479 1 107.488 130.578 -5.55112e-17
480 1 144.134 176.788 -5.55112e-17
481 1 218.222 169.879 -5.55112e-17
482 1 80.3054 196.294 -5.55112e-17
483 1 133.092 183.252 -5.55112e-17
484 2 172.886 50.4185 -5.55112e-17
485 1 162.905 36.1695 -5.55112e-17
486 1 157.299 102.268 -5.55112e-17
487 1 168.918 108.162 -5.55112e-17
488 1 69.3779 35.7285 -5.55112e-17
489 1 88.134 143.034 -5.55112e-17
490 1 205.799 152.095 -5.55112e-17
491 1 84.3944 140.602 -5.55112e-17
492 1 62.7126 126.9 -5.55112e-17
493 1 101.816 189.751 -5.55112e-17
494 1 118.463 16.29 -5.55112e-17
495 1 179.742 24.7552 -5.55112e-17
496 2 67.1186 140.05 -5.55112e-17
497 1 110.18 83.8093 -5.55112e-17
498 1 150.725 61.7445 -5.55112e-17
499 2 166.123 84.2379 -5.55112e-17
500 1 64.0817 203.41 -5.55112e-17
501 2 207.701 204.638 -5.55112e-17
502 2 72.5229 35.8664 -5.55112e-17
503 1 215.651 156.052 -5.55112e-17
504 1 167.329 17.6337 -5.55112e-17
505 1 138.68 94.3691 -5.55112e-17
506 1 106.708 205.818 -5.55112e-17
507 1 11.0178 33.6133 -5.55112e-17
508 1 149.74 100.68 -5.55112e-17
509 2 31.1796 206.417 -5.55112e-17
510 2 196.88 63.5376 -5.55112e-17
511 1 5.76236 217.925 -5.55112e-17
512 2 149.145 88.9619 -5.55112e-17
513 1 125.842 187.48 -5.55112e-17
514 1 146.219 70.6817 -5.55112e-17
515 1 54.8538 200.574 -5.55112e-17
516 1 48.2127 197.43 -5.55112e-17
517 1 210.401 194.819 -5.55112e-17
518 2 216.055 79.5374 -5.55112e-17
519 1 11.787 43.5154 -5.55112e-17
520 2 28.7197 106.302 -5.55112e-17
521 1 90.4382 116.516 -5.55112e-17
522 1 185.282 139.963 -5.55112e-17
523 1 33.8611 153.465 -5.55112e-17
524 1 158.736 166.452 -5.55112e-17
525 1 27.6368 182.583 -5.55112e-17
526 1 216.041 92.8974 -5.55112e-17
527 1 82.8081 142.66 -5.55112e-17
528 1 190.218 217.494 -5.55112e-17
529 1 41.3777 38.8858 -5.55112e-17
530 1 204.901 60.2106 -5.55112e-17
531 1 3.21906 5.23481 -5.55112e-17
532 1 49.8511 42.9894 -5.55112e-17
533 1 24.4725 169.653 -5.55112e-17
534 1 37.6679 192.074 -5.55112e-17
535 1 123.581 122.801 -5.55112e-17
536 1 171.557 83.0363 -5.55112e-17
537 1 180.523 17.4969 -5.55112e-17
538 1 149.605 167.276 -5.55112e-17
539 1 160.95 192.217 -5.55112e-17
540 1 196.312 138.517 -5.55112e-17
541 1 77.9216 210.739 -5.55112e-17
542 1 158.69 13.6106 -5.55112e-17
543 1 151.954 157.844 -5.55112e-17
544 1 64.1415 61.4083 -5.55112e-17
545 1 54.5396 122.506 -5.55112e-17
546 1 214.05 181.678 -5.55112e-17
547 1 127.884 180.931 -5.55112e-17
548 1 117.432 206.048 -5.55112e-17
549 1 92.6589 24.3738 -5.55112e-17
550 2 95.6027 94.1829 -5.55112e-17
551 2 159.88 62.3063 -5.55112e-17
552 2 122.068 56.6872 -5.55112e-17
553 1 95.4187 218.656 -5.55112e-17
554 1 147.61 27.2253 -5.55112e-17
555 2 45.3361 135.836 -5.55112e-17
556 1 157.443 134.479 -5.55112e-17
557 1 165.549 173.216 -5.55112e-17
558 1 136.283 103.761 -5.55112e-17
559 1 130.734 72.2643 -5.55112e-17
560 1 116.489 110.753 -5.55112e-17
561 1 53.4141 155.632 -5.55112e-17
562 1 78.9339 71.3913 -5.55112e-17
563 2 139.394 128.653 -5.55112e-17
564 1 172.219 65.1927 -5.55112e-17
565 1 105.777 1.79431 -5.55112e-17
566 1 155.013 180.008 -5.55112e-17
567 1 188.563 132.977 -5.55112e-17
568 1 150.188 123.504 -5.55112e-17
569 1 11.1012 180.765 -5.55112e-17
570 1 132.676 130.068 -5.55112e-17
571 1 89.0548 124.367 -5.55112e-17
572 1 116.126 185.374 -5.55112e-17
573 1 170.597 111.859 -5.55112e-17
574 1 93.4571 89.1891 -5.55112e-17
575 1 95.8372 180.883 -5.55112e-17
576 1 103.349 172.586 -5.55112e-17
577 1 151.094 64.4599 -5.55112e-17
578 1 21.6272 212.239 -5.55112e-17
579 1 114.802 103.574 -5.55112e-17
580 1 199.884 154.085 -5.55112e-17
581 1 122.084 213.681 -5.55112e-17
582 1 31.6516 198.622 -5.55112e-17
583 1 138.713 7.93674 -5.55112e-17
584 2 59.485 55.2554 -5.55112e-17
585 1 148.292 6.09985 -5.55112e-17
586 1 183.778 152.057 -5.55112e-17
587 1 6.59865 149.128 -5.55112e-17
588 1 92.6479 157.386 -5.55112e-17
589 1 49.0486 45.5412 -5.55112e-17
590 1 184.943 191.413 -5.55112e-17
591 1 70.8464 184.11 -5.55112e-17
592 1 163.79 133.859 -5.55112e-17
593 1 58.6518 25.0629 -5.55112e-17
594 1 159.793 32.379 -5.55112e-17
595 1 168.607 192.964 -5.55112e-17
596 1 130.09 22.6172 -5.55112e-17
597 2 4.22028 132.566 -5.55112e-17
598 1 22.0236 124.714 -5.55112e-17
599 1 188.615 105.493 -5.55112e-17
600 1 131.493 4.59839 -5.55112e-17
601 1 61.2639 182.91 -5.55112e-17
602 1 140.673 31.7136 -5.55112e-17
603 1 59.1383 147.092 -5.55112e-17
604 1 130.49 31.8141 -5.55112e-17
605 2 210.879 82.4955 -5.55112e-17
606 1 205.199 157.941 -5.55112e-17
607 2 186.532 5.45422 -5.55112e-17
608 1 56.9739 59.3835 -5.55112e-17
609 1 109.081 99.2864 -5.55112e-17
610 1 56.7165 177.605 -5.55112e-17
611 1 203.316 174.011 -5.55112e-17
612 1 196.865 35.2387 -5.55112e-17
613 1 33.0178 208.598 -5.55112e-17
614 2 26.1695 78.1748 -5.55112e-17
615 1 107.659 194.693 -5.55112e-17
616 1 31.4685 65.7725 -5.55112e-17
617 1 134.444 108.28 -5.55112e-17
618 1 215.314 214.618 -5.55112e-17
619 1 85.8015 191.831 -5.55112e-17
620 1 29.2055 52.0691 -5.55112e-17
621 1 15.4097 92.8438 -5.55112e-17
622 1 98.8402 51.8299 -5.55112e-17
623 1 73.8684 165.959 -5.55112e-17
624 1 153.678 45.1774 -5.55112e-17
625 1 5.71274 212.16 -5.55112e-17
626 1 150.144 179.772 -5.55112e-17
627 1 20.5223 143.278 -5.55112e-17
628 1 199.782 134.891 -5.55112e-17
629 1 203.41 82.7519 -5.55112e-17
630 2 23.0841 183.94 -5.55112e-17
631 1 88.2079 154.142 -5.55112e-17
632 1 209.898 209.972 -5.55112e-17
633 1 166.973 106.207 -5.55112e-17
634 1 122.931 13.9181 -5.55112e-17
635 1 200.401 141.311 -5.55112e-17
636 1 14.322 69.222 -5.55112e-17
637 1 128.169 108.533 -5.55112e-17
638 1 164.746 170.979 -5.55112e-17
639 2 90.1505 21.6252 -5.55112e-17
640 1 212.384 119.676 -5.55112e-17
641 1 211.959 94.6306 -5.55112e-17
642 1 185.05 144.924 -5.55112e-17
643 2 214.058 3.73109 -5.55112e-17
644 1 51.1538 64.9006 -5.55112e-17
645 1 147.35 86.6168 -5.55112e-17
646 2 135.365 135.668 -5.55112e-17
647 1 7.02504 56.072 -5.55112e-17
648 1 210.546 56.2875 -5.55112e-17
649 2 73.8564 26.4277 -5.55112e-17
650 1 48.1337 188.349 -5.55112e-17
651 1 152.14 204.823 -5.55112e-17
652 1 125.024 57.1111 -5.55112e-17
653 1 155.027 214.656 -5.55112e-17
654 1 170.038 152.745 -5.55112e-17
655 2 5.10753 142.572 -5.55112e-17
656 1 109.293 41.1774 -5.55112e-17
657 2 26.9249 49.7231 -5.55112e-17
658 1 57.7283 161.017 -5.55112e-17
659 2 165.959 64.5483 -5.55112e-17
660 1 54.9349 172.647 -5.55112e-17
661 1 4.7888 154.294 -5.55112e-17
662 1 40.1915 97.2531 -5.55112e-17
663 1 33.2283 204.283 -5.55112e-17
664 1 134.334 203.627 -5.55112e-17
665 1 134.029 4.11268 -5.55112e-17
666 2 42.9786 154.226 -5.55112e-17
667 1 83.0124 97.6438 -5.55112e-17
668 2 101.599 174.879 -5.55112e-17
669 1 96.6135 50.7458 -5.55112e-17
670 1 78.0477 36.3848 -5.55112e-17
671 2 155.295 150.843 -5.55112e-17
672 1 52.201 127.7 -5.55112e-17
673 1 209.746 6.05288 -5.55112e-17
674 1 52.9186 135.234 -5.55112e-17
675 1 68.1479 80.5652 -5.55112e-17
676 1 145.813 208.643 -5.55112e-17
677 1 123.389 186.737 -5.55112e-17
678 1 38.5009 117.806 -5.55112e-17
679 2 205.385 199.855 -5.55112e-17
680 1 42.4169 171.904 -5.55112e-17
681 2 167.868 10.3886 -5.55112e-17
682 1 186.009 110.178 -5.55112e-17
683 1 210.767 3.50268 -5.55112e-17
684 1 190.383 77.8658 -5.55112e-17
685 1 137.124 126.766 -5.55112e-17
686 1 72.3852 59.2529 -5.55112e-17
687 1 2.08337 142.72 -5.55112e-17
688 1 169.086 140.946 -5.55112e-17
689 2 54.2665 57.6714 -5.55112e-17
690 1 22.6233 98.6037 -5.55112e-17
691 1 47.8059 148.078 -5.55112e-17
692 1 176.089 218.019 -5.55112e-17
693 1 98.294 36.766 -5.55112e-17
694 1 167.543 163.987 -5.55112e-17
695 1 84.3226 194.306 -5.55112e-17
696 1 127.223 196.082 -5.55112e-17
697 1 51.6527 23.5545 -5.55112e-17
698 1 29.34 54.3959 -5.55112e-17
699 1 149.782 56.72 -5.55112e-17
700 1 214.478 95.1818 -5.55112e-17
701 1 13.0404 80.8465 -5.55112e-17
702 1 40.3611 26.9841 -5.55112e-17
703 2 10.8116 211.94 -5.55112e-17
704 1 0.236627 178.351 -5.55112e-17
705 2 51.7186 212.225 -5.55112e-17
706 1 64.854 122.085 -5.55112e-17
707 1 36.6246 80.1545 -5.55112e-17
708 1 61.7102 187.461 -5.55112e-17
709 1 107.196 116.597 -5.55112e-17
710 1 72.7119 10.1422 -5.55112e-17
711 1 131.561 56.2833 -5.55112e-17
712 1 140.691 213.014 -5.55112e-17
713 1 39.0826 140.109 -5.55112e-17
714 1 209.921 128.375 -5.55112e-17
715 1 90.4644 95.9241 -5.55112e-17
716 1 212.579 114.765 -5.55112e-17
717 1 49.3918 22.462 -5.55112e-17
718 1 176.41 9.75657 -5.55112e-17
719 2 38.6432 94.474 -5.55112e-17
720 1 156.435 156.773 -5.55112e-17
721 1 190.902 139.58 -5.55112e-17
722 1 140.656 180.596 -5.55112e-17
723 2 113.433 199.721 -5.55112e-17
724 1 207.613 183.643 -5.55112e-17
725 1 193.166 108.172 -5.55112e-17
726 1 145.83 67.8858 -5.55112e-17
727 1 190.112 154.297 -5.55112e-17
728 2 96.3277 124.591 -5.55112e-17
729 1 35.7794 67.0305 -5.55112e-17
730 1 158.706 191.066 -5.55112e-17
731 1 204.597 162.29 -5.55112e-17
732 1 89.5816 52.9092 -5.55112e-17
733 1 208.105 81.8547 -5.55112e-17
734 1 24.0483 207.542 -5.55112e-17
735 1 33.9435 62.5617 -5.55112e-17
736 2 19.2098 202.389 -5.55112e-17
737 1 189.224 160.302 -5.55112e-17
738 1 85.7888 50.2422 -5.55112e-17
739 1 111.706 107.605 -5.55112e-17
740 1 82.0044 95.2267 -5.55112e-17
741 2 73.5419 204.315 -5.55112e-17
742 1 62.0108 172.71 -5.55112e-17
743 1 18.4846 195.51 -5.55112e-17
744 2 159.064 130.307 -5.55112e-17
745 1 9.13569 66.0893 -5.55112e-17
746 1 68.9185 16.3537 -5.55112e-17
747 2 133.803 175.994 -5.55112e-17
748 1 107.73 75.8714 -5.55112e-17
749 1 69.835 140.541 -5.55112e-17
750 1 156.894 94.0796 -5.55112e-17
751 1 67.883 21.6712 -5.55112e-17
752 1 131.145 170.378 -5.55112e-17
753 1 74.6658 211.736 -5.55112e-17
754 1 73.8869 147.951 -5.55112e-17
755 1 24.272 186.834 -5.55112e-17
756 2 67.4801 129.193 -5.55112e-17
757 1 214.488 109.657 -5.55112e-17
758 1 134.16 196.435 -5.55112e-17
759 1 84.2472 14.6532 -5.55112e-17
760 1 106.598 217.005 -5.55112e-17
761 1 26.8253 52.561 -5.55112e-17
762 1 127.533 110.878 -5.55112e-17
763 1 90.4963 155.654 -5.55112e-17
764 2 61.1061 155.562 -5.55112e-17
765 1 216.471 82.2337 -5.55112e-17
766 1 36.6159 96.379 -5.55112e-17
767 1 136.575 3.19441 -5.55112e-17
768 1 193.168 187.443 -5.55112e-17
769 1 127.411 134.906 -5.55112e-17
770 2 2.0232 101.703 -5.55112e-17
771 1 135.31 217.718 -5.55112e-17
772 1 114.491 160.902 -5.55112e-17
773 1 145.748 84.6337 -5.55112e-17
774 1 211.452 207.444 -5.55112e-17
775 1 214.356 74.8964 -5.55112e-17
776 1 27.0238 156.726 -5.55112e-17
777 1 131.882 92.4189 -5.55112e-17
778 1 52.0137 0.0693028 -5.55112e-17
779 1 200.258 183.103 -5.55112e-17
780 1 217.148 184.91 -5.55112e-17
781 1 157.065 213.141 -5.55112e-17
782 1 210.267 51.4146 -5.55112e-17
783 1 37.4157 104.094 -5.55112e-17
784 2 26.049 85.932 -5.55112e-17
785 1 43.0479 197.99 -5.55112e-17
786 1 93.2276 201.874 -5.55112e-17
787 1 164.506 195.744 -5.55112e-17
788 1 205.202 179.002 -5.55112e-17
789 2 52.5143 84.6025 -5.55112e-17
790 1 142.527 61.2164 -5.55112e-17
791 2 105.621 146.897 -5.55112e-17
792 2 104.86 75.3959 -5.55112e-17
793 2 142.515 21.9741 -5.55112e-17
794 1 133.159 38.4401 -5.55112e-17
795 1 45.5836 120.712 -5.55112e-17
796 1 154.687 73.5853 -5.55112e-17
797 1 72.5075 186.302 -5.55112e-17
798 2 23.5138 147.471 -5.55112e-17
799 2 200.16 104.805 -5.55112e-17
800 2 210.727 117.268 -5.55112e-17
801 1 152.787 128.059 -5.55112e-17
802 1 37.6187 86.683 -5.55112e-17
803 1 195.213 122.931 -5.55112e-17
804 2 147.905 98.5599 -5.55112e-17
805 1 168.699 166.72 -5.55112e-17
806 1 3.36687 161.809 -5.55112e-17
807 2 196.975 120.33 -5.55112e-17
808 1 144.686 211.012 -5.55112e-17
809 2 52.614 115.756 -5.55112e-17
810 1 205.473 188.008 -5.55112e-17
811 1 202.811 157.605 -5.55112e-17
812 1 168.923 46.9764 -5.55112e-17
813 2 36.7723 173.224 -5.55112e-17
814 1 113.313 95.374 -5.55112e-17
815 1 64.4415 64.0131 -5.55112e-17
816 1 197.157 150.521 -5.55112e-17
817 1 69.2329 43.5274 -5.55112e-17
818 1 217.44 61.6691 -5.55112e-17
819 1 43.4266 138.241 -5.55112e-17
820 1 172.474 165.226 -5.55112e-17
821 1 80.8488 123.049 -5.55112e-17
822 2 54.4771 193.184 -5.55112e-17
823 2 130.293 200.695 -5.55112e-17
824 1 38.7518 132.099 -5.55112e-17
825 1 86.2706 40.819 -5.55112e-17
826 1 125.994 182.305 -5.55112e-17
827 1 45.8404 202.167 -5.55112e-17
828 1 217.889 154.494 -5.55112e-17
829 1 84.4296 199.34 -5.55112e-17
830 1 50.4393 47.7227 -5.55112e-17
831 1 167.506 152.27 -5.55112e-17
832 1 198.484 70.6665 -5.55112e-17
833 1 215.912 125.8 -5.55112e-17
834 1 134.614 156.08 -5.55112e-17
835 1 73.2257 188.66 -5.55112e-17
836 1 170.399 49.194 -5.55112e-17
837 1 75.0592 182.2 -5.55112e-17
838 1 35.7841 89.2988 -5.55112e-17
839 2 70.3588 209.117 -5.55112e-17
840 1 186.024 171.648 -5.55112e-17
841 2 96.5389 53.7121 -5.55112e-17
842 1 175.691 15.8192 -5.55112e-17
843 2 56.3767 26.5876 -5.55112e-17
844 1 81.2405 185.747 -5.55112e-17
845 1 31.0401 13.4411 -5.55112e-17
846 1 169.01 64.3013 -5.55112e-17
847 1 202.856 13.375 -5.55112e-17
848 1 49.4161 167.071 -5.55112e-17
849 1 137.357 0.876241 -5.55112e-17
850 1 97.5346 0.688978 -5.55112e-17
851 1 14.199 0.826694 -5.55112e-17
852 1 26.4342 171.381 -5.55112e-17
853 1 159.766 59.2669 -5.55112e-17
854 1 28.5816 185.407 -5.55112e-17
855 1 176.12 187.351 -5.55112e-17
856 1 165.875 25.1933 -5.55112e-17