ITEM: TIMESTEP
0
ITEM: NUMBER OF ATOMS
7200
ITEM: BOX BOUNDS xy xz yz pp pp pp
0.0000000000000000e+00 2.1900000000000000e+02 0.0000000000000000e+00
0.0000000000000000e+00 2.1900000000000000e+02 0.0000000000000000e+00
-3.6499999999999999e-01 3.6499999999999999e-01 0.0000000000000000e+00
ITEM: ATOMS id type x y z
1 1 159.582 129.368 -5.55112e-17
2 1 21.2935 3.90791 -5.55112e-17
3 1 165.57 16.1228 -5.55112e-17
4 1 97.959 115.768 -5.55112e-17
5 1 51.4385 139.215 -5.55112e-17
6 1 82.4171 205.154 -5.55112e-17
7 1 157.448 169.171 -5.55112e-17
8 2 105.431 37.456 -5.55112e-17
9 1 139.092 82.6528 -5.55112e-17
10 2 157.515 90.5336 -5.55112e-17
11 1 20.8563 16.4506 -5.55112e-17
12 1 95.8928 179.247 -5.55112e-17
13 2 155.212 210.666 -5.55112e-17
14 1 56.451 20.0491 -5.55112e-17
15 1 217.278 40.3953 -5.55112e-17
16 2 20.1893 186.172 -5.55112e-17
17 1 72.3625 178.589 -5.55112e-17
18 2 194.982 40.8682 -5.55112e-17
19 1 4.69406 166.912 -5.55112e-17
20 1 118.944 11.578 -5.55112e-17
21 1 98.1805 53.914 -5.55112e-17
22 2 31.9412 121.843 -5.55112e-17
23 2 118.032 205.332 -5.55112e-17
24 1 160.703 149.839 -5.55112e-17
25 1 78.336 68.0903 -5.55112e-17
26 2 115.888 193.729 -5.55112e-17
27 1 47.6044 213.248 -5.55112e-17
28 2 181.857 197.489 -5.55112e-17
29 1 51.5808 73.1298 -5.55112e-17
30 1 74.8985 91.7275 -5.55112e-17
31 1 196.783 53.6952 -5.55112e-17
32 1 133.102 140.01 -5.55112e-17
33 1 159.795 143.305 -5.55112e-17
34 1 115.427 113.788 -5.55112e-17
35 1 111.792 149.411 -5.55112e-17
36 1 157.398 70.7956 -5.55112e-17
37 2 123.572 187.378 -5.55112e-17
38 1 132.003 14.4952 -5.55112e-17
39 1 89.1559 73.8737 -5.55112e-17
40 1 152.495 136.967 -5.55112e-17
41 1 127.721 30.9466 -5.55112e-17
42 1 26.2889 212.623 -5.55112e-17
43 1 126.809 12.0367 -5.55112e-17
44 1 65.1479 150.125 -5.55112e-17
45 1 66.4296 134.353 -5.55112e-17
46 1 112.026 200.74 -5.55112e-17
47 1 29.2949 105.877 -5.55112e-17
48 2 80.7727 59.6464 -5.55112e-17
49 1 213.53 175.821 -5.55112e-17
50 1 60.3456 113.318 -5.55112e-17
51 1 32.9769 127.059 -5.55112e-17
52 1 127.128 42.0309 -5.55112e-17
53 1 153.818 186.33 -5.55112e-17
54 1 177.939 178.031 -5.55112e-17
55 1 44.0441 23.9809 -5.55112e-17
56 1 14.06 112.718 -5.55112e-17
57 2 21.8434 171.35 -5.55112e-17
58 1 19.633 117.473 -5.55112e-17
59 1 162.969 71.8703 -5.55112e-17
60 2 30.702 150.315 -5.55112e-17
61 2 148.644 53.3571 -5.55112e-17
62 1 10.851 16.4751 -5.55112e-17
63 1 193.737 200.22 -5.55112e-17
64 1 51.6975 115.835 -5.55112e-17
65 1 132.36 212.707 -5.55112e-17
66 1 69.6866 153.469 -5.55112e-17
67 1 24.7357 171.529 -5.55112e-17
68 1 28.1193 143.491 -5.55112e-17
69 1 187.394 23.9728 -5.55112e-17
70 1 160.566 190.182 -5.55112e-17
71 1 0.711133 199.886 -5.55112e-17
72 1 28.9821 101.496 -5.55112e-17
73 1 65.3705 24.0919 -5.55112e-17
74 1 44.2214 15.5759 -5.55112e-17
75 2 33.7171 207.275 -5.55112e-17
76 1 201.663 205.703 -5.55112e-17
77 1 17.2475 86.9539 -5.55112e-17
78 1 49.418 74.5023 -5.55112e-17
79 2 13.2677 130.867 -5.55112e-17
80 1 182.967 33.1487 -5.55112e-17
81 1 2.47397 178.786 -5.55112e-17
82 1 143.381 185.847 -5.55112e-17
83 2 118.842 145.104 -5.55112e-17
84 1 161.822 0.469414 -5.55112e-17
85 1 142.128 150.162 -5.55112e-17
86 1 139.262 16.0584 -5.55112e-17
87 1 86.9852 31.4696 -5.55112e-17
88 1 63.0381 86.0436 -5.55112e-17
89 2 191.643 135.051 -5.55112e-17
90 2 15.3545 97.3697 -5.55112e-17
91 1 101.666 179.714 -5.55112e-17
92 2 24.6652 86.7601 -5.55112e-17
93 1 129.801 15.384 -5.55112e-17
94 2 211.73 41.5096 -5.55112e-17
95 1 167.69 187.201 -5.55112e-17
96 1 19.9881 24.3974 -5.55112e-17
97 1 83.7849 127.236 -5.55112e-17
98 1 100.292 84.699 -5.55112e-17
99 1 8.08886 214.737 -5.55112e-17
100 1 208.452 8.67672 -5.55112e-17
101 1 194.273 204.859 -5.55112e-17
102 1 172.376 173.03 -5.55112e-17
103 1 5.80887 147.569 -5.55112e-17
104 1 156.361 36.4711 -5.55112e-17
105 1 201.802 160.332 -5.55112e-17
106 1 7.51025 97.238 -5.55112e-17
107 2 172.867 46.6073 -5.55112e-17
108 1 158.903 171.147 -5.55112e-17
109 1 213.791 104.54 -5.55112e-17
110 1 72.8962 3.28801 -5.55112e-17
111 1 61.02 65.0021 -5.55112e-17
112 1 8.78642 157.128 -5.55112e-17
113 1 124.785 13.4693 -5.55112e-17
114 1 173.494 143.604 -5.55112e-17
115 1 215.82 144.45 -5.55112e-17
116 2 22.0754 88.6487 -5.55112e-17
117 1 153.311 147.442 -5.55112e-17
118 1 29.0812 116.449 -5.55112e-17
119 2 161.858 140.768 -5.55112e-17
120 1 152.468 116.55 -5.55112e-17
121 1 146.624 151.479 -5.55112e-17
122 1 38.5482 218.507 -5.55112e-17
123 1 159.177 61.3245 -5.55112e-17
124 1 109.478 33.4763 -5.55112e-17
125 1 111.034 159.187 -5.55112e-17
126 1 178.035 0.214399 -5.55112e-17
127 1 176.242 104.945 -5.55112e-17
128 1 82.882 57.8337 -5.55112e-17
129 1 126.1 133.278 -5.55112e-17
130 1 14.1859 138.947 -5.55112e-17
131 1 58.5688 132.278 -5.55112e-17
132 2 70.8565 73.936 -5.55112e-17
133 1 130.587 139.155 -5.55112e-17
134 1 139.772 108.608 -5.55112e-17
135 1 52.9479 59.6239 -5.55112e-17
136 1 85.1036 96.0091 -5.55112e-17
137 1 203.287 66.9353 -5.55112e-17
138 1 17.0374 149.783 -5.55112e-17
139 1 32.9818 110.294 -5.55112e-17
140 2 126.343 130.19 -5.55112e-17
141 1 177.646 78.8146 -5.55112e-17
142 2 39.1692 164.83 -5.55112e-17
143 1 154.08 60.7897 -5.55112e-17
144 2 170.133 153.938 -5.55112e-17
145 1 185.447 209.929 -5.55112e-17
146 1 34.7686 201.772 -5.55112e-17
147 1 155.844 72.7522 -5.55112e-17
148 1 130.237 87.1306 -5.55112e-17
149 1 47.3778 20.4752 -5.55112e-17
150 1 9.62882 151.448 -5.55112e-17
151 1 27.4786 149.005 -5.55112e-17
152 1 26.314 20.5285 -5.55112e-17
153 2 179.518 40.0913 -5.55112e-17
154 1 99.0772 18.2197 -5.55112e-17
155 1 171.816 176.136 -5.55112e-17
156 2 185.962 145.135 -5.55112e-17
157 1 103.505 51.1489 -5.55112e-17
158 1 149.304 61.1075 -5.55112e-17
159 1 137.189 31.9425 -5.55112e-17
160 1 161.737 135.525 -5.55112e-17
161 1 90.2133 106.038 -5.55112e-17
162 1 199.3 189.475 -5.55112e-17
163 1 35.341 128.362 -5.55112e-17
164 1 0.502078 156.981 -5.55112e-17
165 1 195.213 48.7171 -5.55112e-17
166 2 6.17188 175.016 -5.55112e-17
167 1 125.456 148.321 -5.55112e-17
168 1 187.23 217.077 -5.55112e-17
169 1 86.6739 168.37 -5.55112e-17
170 1 11.2277 170.057 -5.55112e-17
171 1 58.1535 14.6524 -5.55112e-17
172 1 94.4116 210.976 -5.55112e-17
173 1 189.483 11.6051 -5.55112e-17
174 1 95.8744 172.003 -5.55112e-17
175 2 104.159 116.747 -5.55112e-17
176 1 165.774 40.9718 -5.55112e-17
177 2 80.8251 145.18 -5.55112e-17
178 1 107.862 108.917 -5.55112e-17
179 1 102.391 24.0388 -5.55112e-17
180 1 90.891 200.423 -5.55112e-17
181 1 115.212 107.936 -5.55112e-17
182 2 175.938 80.676 -5.55112e-17
183 1 143.527 146.092 -5.55112e-17
184 1 171.022 131.648 -5.55112e-17
185 2 196.024 3.86115 -5.55112e-17
186 2 98.673 155.117 -5.55112e-17
187 1 27.4474 18.0725 -5.55112e-17
188 1 130.598 144.221 -5.55112e-17
189 1 218.579 85.5469 -5.55112e-17
190 2 190.896 151.435 -5.55112e-17
191 1 78.6585 28.5875 -5.55112e-17
192 2 84.8553 84.3345 -5.55112e-17
193 2 89.2562 13.386 -5.55112e-17
194 1 1.14689 61.0266 -5.55112e-17
195 1 153.005 4.34805 -5.55112e-17
196 1 20.7517 91.2628 -5.55112e-17
197 1 156.192 105.985 -5.55112e-17
198 2 9.2659 141.384 -5.55112e-17
199 1 205.157 39.6638 -5.55112e-17
200 1 149.028 154.35 -5.55112e-17
201 2 83.7839 69.4717 -5.55112e-17
202 1 166.195 147.916 -5.55112e-17
203 1 113.105 193.446 -5.55112e-17
204 1 151.286 30.9856 -5.55112e-17
205 2 146.939 85.6295 -5.55112e-17
206 1 136.349 16.8648 -5.55112e-17
207 1 188.334 26.4822 -5.55112e-17
208 1 197.352 218.192 -5.55112e-17
209 1 47.9309 183.101 -5.55112e-17
210 1 43.0272 157.295 -5.55112e-17
211 2 25.5566 153.617 -5.55112e-17
212 1 22.1522 18.5184 -5.55112e-17
213 1 168.813 204.26 -5.55112e-17
214 1 50.6501 57.0259 -5.55112e-17
215 1 216.175 26.9938 -5.55112e-17
216 1 9.51116 87.8045 -5.55112e-17
217 1 7.65222 53.8215 -5.55112e-17
218 2 218.892 117.983 -5.55112e-17
219 1 215.247 53.7279 -5.55112e-17
220 2 94.4704 109.366 -5.55112e-17
221 1 9.42456 36.221 -5.55112e-17
222 1 155.097 164.643 -5.55112e-17
223 1 203.112 218.196 -5.55112e-17
224 2 36.1471 35.1497 -5.55112e-17
225 1 90.7626 150.24 -5.55112e-17
226 1 91.2757 72.0926 -5.55112e-17
227 2 152.732 93.1288 -5.55112e-17
228 1 169.278 12.9282 -5.55112e-17
229 1 210.497 83.2101 -5.55112e-17
230 1 200.352 126.815 -5.55112e-17
231 1 119.733 125.146 -5.55112e-17
232 1 204.284 175.876 -5.55112e-17
233 1 54.5589 146.493 -5.55112e-17
234 1 22.6626 182.135 -5.55112e-17
235 1 190.968 173.435 -5.55112e-17
236 1 69.9233 25.5162 -5.55112e-17
237 1 111.025 79.7124 -5.55112e-17
238 1 28.5383 121.107 -5.55112e-17
239 2 199.177 133.61 -5.55112e-17
240 1 203.428 1.81952 -5.55112e-17
241 2 82.9609 178.481 -5.55112e-17
242 2 5.9896 189.612 -5.55112e-17
243 2 76.9409 75.2215 -5.55112e-17
244 1 47.5865 163.654 -5.55112e-17
245 1 87.1068 41.3466 -5.55112e-17
246 1 63.0477 88.8685 -5.55112e-17
247 1 204.926 74.9765 -5.55112e-17
248 1 130.451 94.5137 -5.55112e-17
249 1 59.3715 76.1536 -5.55112e-17
250 2 53.8096 190.094 -5.55112e-17
251 1 36.5951 190.193 -5.55112e-17
252 1 197.995 208.471 -5.55112e-17
253 1 32.5899 94.4104 -5.55112e-17
254 2 143.747 152.473 -5.55112e-17
255 1 0.53156 195.148 -5.55112e-17
256 1 52.3092 128.988 -5.55112e-17
257 1 187.419 83.6968 -5.55112e-17
258 2 77.1525 11.8736 -5.55112e-17
259 1 124.975 47.0726 -5.55112e-17
260 1 83.6187 114.564 -5.55112e-17
261 1 6.03055 83.644 -5.55112e-17
262 1 88.0653 23.6153 -5.55112e-17
263 1 194.657 143.536 -5.55112e-17
264 1 217.861 22.6916 -5.55112e-17
265 1 99.2881 57.6763 -5.55112e-17
266 1 194.077 104.315 -5.55112e-17
267 1 205.098 123.16 -5.55112e-17
268 1 73.6517 212.848 -5.55112e-17
269 1 186.887 207.913 -5.55112e-17
270 1 12.8625 39.1693 -5.55112e-17
271 1 31.1808 27.7178 -5.55112e-17
272 1 207.317 22.9315 -5.55112e-17
273 1 98.3897 130.07 -5.55112e-17
274 2 151.755 113.773 -5.55112e-17
275 1 150.368 91.9385 -5.55112e-17
276 2 67.3572 69.5839 -5.55112e-17
277 2 51.4094 64.6616 -5.55112e-17
278 1 170.366 63.6486 -5.55112e-17
279 2 201.836 79.8816 -5.55112e-17
280 1 19.8602 207.97 -5.55112e-17
281 1 38.431 161.902 -5.55112e-17
282 1 174.246 113.594 -5.55112e-17
283 1 152.063 169.043 -5.55112e-17
284 1 178.281 147.109 -5.55112e-17
285 1 42.5571 93.4364 -5.55112e-17
286 2 216.017 74.9031 -5.55112e-17
287 1 164.946 126.738 -5.55112e-17
288 1 23.1349 151.751 -5.55112e-17
289 1 193.467 65.9192 -5.55112e-17
290 1 156.991 129.59 -5.55112e-17
291 1 166.755 9.42818 -5.55112e-17
292 2 132.002 67.3179 -5.55112e-17
293 2 117.867 28.6976 -5.55112e-17
294 1 83.8949 30.4064 -5.55112e-17
295 1 159.335 199.986 -5.55112e-17
296 1 84.6666 89.8517 -5.55112e-17
297 1 196.546 182.213 -5.55112e-17
298 1 172.756 108.695 -5.55112e-17
299 1 103.343 29.7732 -5.55112e-17
300 2 218.753 25.4095 -5.55112e-17
301 1 169.137 124.59 -5.55112e-17
302 1 168.388 51.9366 -5.55112e-17
303 2 111.923 205.888 -5.55112e-17
304 2 162.156 69.0171 -5.55112e-17
305 1 103.343 176.831 -5.55112e-17
306 1 105.809 118.918 -5.55112e-17
307 1 61.2338 164.036 -5.55112e-17
308 1 119.412 3.22323 -5.55112e-17
309 2 6.21962 41.3938 -5.55112e-17
310 1 118.652 135.139 -5.55112e-17
311 1 7.88226 12.0096 -5.55112e-17
312 1 72.9068 62.8366 -5.55112e-17
313 2 28.8857 90.8542 -5.55112e-17
314 1 55.7629 169.506 -5.55112e-17
315 1 75.766 190.74 -5.55112e-17
316 1 155.557 25.2949 -5.55112e-17
317 1 54.5976 216.967 -5.55112e-17
318 1 139.937 93.0767 -5.55112e-17
319 1 148.13 177.739 -5.55112e-17
320 1 26.8508 136.702 -5.55112e-17
321 1 86.4809 49.4771 -5.55112e-17
322 1 111.157 2.84626 -5.55112e-17
323 1 73.2349 45.4546 -5.55112e-17
324 1 118.861 116.892 -5.55112e-17
325 1 37.578 52.0452 -5.55112e-17
326 1 72.7576 93.1724 -5.55112e-17
327 2 154.275 20.1592 -5.55112e-17
328 1 108.647 158.547 -5.55112e-17
329 2 155.085 190.787 -5.55112e-17
330 1 115.688 1.76174 -5.55112e-17
331 1 152.948 152.1 -5.55112e-17
332 2 106.956 149.907 -5.55112e-17
333 1 135.361 76.6702 -5.55112e-17
334 1 79.8786 45.1646 -5.55112e-17
335 1 77.2367 83.5237 -5.55112e-17
336 1 147.166 212.74 -5.55112e-17
337 1 77.9894 40.6248 -5.55112e-17
338 1 24.3861 51.7213 -5.55112e-17
339 1 77.6757 144.548 -5.55112e-17
340 1 182.816 47.5608 -5.55112e-17
341 1 63.663 28.8408 -5.55112e-17
342 1 175.635 77.4414 -5.55112e-17
343 1 193.957 150.753 -5.55112e-17
344 1 138.883 121.391 -5.55112e-17
345 1 154.105 135.003 -5.55112e-17
346 1 143.539 53.4871 -5.55112e-17
347 1 196.811 197.157 -5.55112e-17
348 1 218.428 44.8267 -5.55112e-17
349 1 172.463 68.0305 -5.55112e-17
350 2 184.88 159.153 -5.55112e-17
351 1 131.925 70.634 -5.55112e-17
352 1 117.142 67.0861 -5.55112e-17
353 1 202.043 91.9729 -5.55112e-17
354 1 70.3513 98.8041 -5.55112e-17
355 1 155.727 152.202 -5.55112e-17
356 1 188.742 172.89 -5.55112e-17
357 1 7.67182 7.43124 -5.55112e-17
358 1 27.5687 184.763 -5.55112e-17
359 1 188.551 198.459 -5.55112e-17
360 1 2.25664 166.339 -5.55112e-17
361 1 138.289 21.5145 -5.55112e-17
362 1 157.516 173.537 -5.55112e-17
363 1 98.2815 100.231 -5.55112e-17
364 2 82.616 8.77781 -5.55112e-17
365 1 145.001 38.9834 -5.55112e-17
366 1 74.0655 52.3195 -5.55112e-17
367 1 32.4246 81.2326 -5.55112e-17
368 1 108.33 8.24864 -5.55112e-17
369 2 96.9436 0.919496 -5.55112e-17
370 1 14.2175 177.482 -5.55112e-17
371 1 130.915 126.576 -5.55112e-17
372 2 112.165 51.2422 -5.55112e-17
373 2 101.186 105.583 -5.55112e-17
374 1 191.631 91.0286 -5.55112e-17
375 1 160.64 40.6062 -5.55112e-17
376 1 100.44 120.745 -5.55112e-17
377 1 134.738 208.65 -5.55112e-17
378 1 94.8692 61.4679 -5.55112e-17
379 1 72.3389 90.8968 -5.55112e-17
380 1 60.2316 108.849 -5.55112e-17
381 1 73.0145 79.2197 -5.55112e-17
382 1 119.179 21.5792 -5.55112e-17
383 1 147.609 68.1151 -5.55112e-17
384 1 110.248 89.0527 -5.55112e-17
385 1 3.25436 206.235 -5.55112e-17
386 2 15.7316 15.058 -5.55112e-17
387 1 187.23 137.104 -5.55112e-17
388 1 2.36096 138.901 -5.55112e-17
389 1 49.9715 0.619079 -5.55112e-17
390 2 187.824 167.13 -5.55112e-17
391 2 34.7953 79.2811 -5.55112e-17
392 1 145.154 139.12 -5.55112e-17
393 1 134.174 130.863 -5.55112e-17
394 1 165.882 118.838 -5.55112e-17
395 1 199.085 80.9462 -5.55112e-17
396 1 52.175 97.9888 -5.55112e-17
397 1 73.8996 29.5034 -5.55112e-17
398 1 104.772 129.443 -5.55112e-17
399 1 122.247 181.338 -5.55112e-17
400 1 112.166 141.695 -5.55112e-17
401 1 33.9113 115.109 -5.55112e-17
402 2 171.908 30.5944 -5.55112e-17
403 1 19.8633 205.102 -5.55112e-17
404 1 158.399 214.668 -5.55112e-17
405 1 199.075 113.953 -5.55112e-17
406 1 215.449 37.1666 -5.55112e-17
407 2 123.911 5.74105 -5.55112e-17
408 1 201.374 129.428 -5.55112e-17
409 1 117.269 19.8539 -5.55112e-17
410 1 87.5294 149.547 -5.55112e-17
411 1 189.583 182.372 -5.55112e-17
412 1 36.5085 175.689 -5.55112e-17
413 1 0.275096 150.611 -5.55112e-17
414 1 44.5091 55.448 -5.55112e-17
415 1 104.945 184.065 -5.55112e-17
416 1 15.2456 48.3987 -5.55112e-17
417 1 212.977 100.006 -5.55112e-17
418 2 214.013 109.888 -5.55112e-17
419 1 190.707 171.029 -5.55112e-17
420 2 61.2483 54.0597 -5.55112e-17
421 1 109.682 166.179 -5.55112e-17
422 1 207.632 75.2244 -5.55112e-17
423 2 18.9714 141.611 -5.55112e-17
424 1 66.5219 102.028 -5.55112e-17
425 1 123.148 217.757 -5.55112e-17
426 1 156.664 101.14 -5.55112e-17
427 1 218.542 70.7212 -5.55112e-17
428 1 201.79 69.1983 -5.55112e-17
429 1 91.0968 37.5499 -5.55112e-17
430 1 111.34 135.245 -5.55112e-17
431 1 46.7289 84.2921 -5.55112e-17
432 1 176.404 2.08007 -5.55112e-17
433 1 198.979 58.5375 -5.55112e-17
434 1 213.036 79.326 -5.55112e-17
435 1 140.459 96.2817 -5.55112e-17
436 1 121.14 35.5639 -5.55112e-17
437 1 8.94089 27.8541 -5.55112e-17
438 2 14.8349 188.912 -5.55112e-17
439 1 67.8013 24.8507 -5.55112e-17
440 1 74.64 195.456 -5.55112e-17
441 1 8.39459 182.861 -5.55112e-17
442 1 156.167 44.0224 -5.55112e-17
443 1 194.734 217.946 -5.55112e-17
444 1 79.6906 12.6419 -5.55112e-17
445 1 80.0243 188.117 -5.55112e-17
446 1 115.322 43.12 -5.55112e-17
447 1 45.4591 209.325 -5.55112e-17
448 1 104.137 11.1398 -5.55112e-17
449 1 115.172 123.102 -5.55112e-17
450 1 81.4787 175.834 -5.55112e-17
451 1 173.254 132.715 -5.55112e-17
452 1 96.3195 9.72651 -5.55112e-17
453 1 139.168 60.4262 -5.55112e-17
454 1 33.3685 142.304 -5.55112e-17
455 1 95.6617 24.4581 -5.55112e-17
456 1 26.1291 30.1719 -5.55112e-17
457 1 64.8732 176.205 -5.55112e-17
458 1 100.691 128.962 -5.55112e-17
459 1 45.3809 47.0533 -5.55112e-17
460 1 113.086 124.925 -5.55112e-17
461 1 63.046 79.648 -5.55112e-17
462 1 107.656 48.6662 -5.55112e-17
463 1 76.0314 67.0707 -5.55112e-17
464 1 66.9623 196.403 -5.55112e-17
465 1 165.686 65.1767 -5.55112e-17
466 1 164.371 91.7006 -5.55112e-17
467 1 12.1252 105.787 -5.55112e-17
468 1 85.2467 65.0759 -5.55112e-17
469 1 92.2949 210.085 -5.55112e-17
470 1 74.993 22.8709 -5.55112e-17
471 1 164.985 180.439 -5.55112e-17
472 1 114.722 201.01 -5.55112e-17
473 1 130.834 9.57296 -5.55112e-17
474 1 20.3869 180.94 -5.55112e-17
475 1 130.387 104.55 -5.55112e-17
476 2 119.505 119.701 -5.55112e-17
477 1 4.86357 179.991 -5.55112e-17
478 1 167.666 210.344 -5.55112e-17
479 1 143.163 48.7314 -5.55112e-17
480 1 124.483 166.085 -5.55112e-17
481 1 164.904 151.992 -5.55112e-17
482 1 72.3967 76.8562 -5.55112e-17
483 1 55.2091 60.5627 -5.55112e-17
484 2 7.23517 81.1292 -5.55112e-17
485 1 63.1198 138.486 -5.55112e-17
486 1 167.59 63.1924 -5.55112e-17
487 1 49.8533 204.188 -5.55112e-17
488 1 176.351 29.6325 -5.55112e-17
489 1 212.094 217.846 -5.55112e-17
490 1 133.802 90.7775 -5.55112e-17
491 1 36.5353 179.006 -5.55112e-17
492 1 138.851 18.8388 -5.55112e-17
493 1 140.821 20.8869 -5.55112e-17
494 1 194.486 135.886 -5.55112e-17
495 1 194.82 102.071 -5.55112e-17
496 2 148.552 10.3435 -5.55112e-17
497 1 205.541 61.2436 -5.55112e-17
498 1 32.1707 147.644 -5.55112e-17
499 2 33.3687 1.87366 -5.55112e-17
500 1 64.052 53.2277 -5.55112e-17
501 2 99.9864 81.6982 -5.55112e-17
502 2 216.137 177.308 -5.55112e-17
503 1 216.171 160.674 -5.55112e-17
504 1 14.5841 87.542 -5.55112e-17
505 1 26.1019 10.9542 -5.55112e-17
506 1 75.2099 44.3885 -5.55112e-17
507 1 69.0064 181.145 -5.55112e-17
508 1 51.3499 67.4824 -5.55112e-17
509 2 171.629 21.4282 -5.55112e-17
510 2 175.912 92.1806 -5.55112e-17
511 1 33.0877 107.987 -5.55112e-17
512 2 186.671 128.19 -5.55112e-17
513 1 77.521 92.6832 -5.55112e-17
514 1 152.257 83.468 -5.55112e-17
515 1 205.741 72.7035 -5.55112e-17
516 1 8.18303 146.528 -5.55112e-17
517 1 212.781 181.72 -5.55112e-17
518 2 97.5245 103.226 -5.55112e-17
519 1 82.9998 122.546 -5.55112e-17
520 2 179.356 158.443 -5.55112e-17
521 1 207.306 216.655 -5.55112e-17
522 1 6.27133 192.639 -5.55112e-17
523 1 157.281 6.87358 -5.55112e-17
524 1 13.2417 13.3049 -5.55112e-17
525 1 107.712 194.87 -5.55112e-17
526 1 6.20167 145.107 -5.55112e-17
527 1 180.504 182.817 -5.55112e-17
528 1 163.372 64.7227 -5.55112e-17
529 1 123.838 56.9176 -5.55112e-17
530 1 206.929 7.05737 -5.55112e-17
531 1 138.495 215.761 -5.55112e-17
532 1 159.359 118.917 -5.55112e-17
533 1 116.196 215.702 -5.55112e-17
534 1 172.469 56.6684 -5.55112e-17
535 1 79.1064 152.303 -5.55112e-17
536 1 13.9604 107.317 -5.55112e-17
537 1 168.612 92.6452 -5.55112e-17
538 1 4.08022 71.8357 -5.55112e-17
539 1 44.7852 155.264 -5.55112e-17
540 1 151.701 61.8937 -5.55112e-17
541 1 99.7737 41.4757 -5.55112e-17
542 1 85.5261 150.882 -5.55112e-17
543 1 209.363 87.9291 -5.55112e-17
544 1 23.9139 74.0584 -5.55112e-17
545 1 180.787 16.0426 -5.55112e-17
546 1 90.767 161.165 -5.55112e-17
547 1 123.056 151.508 -5.55112e-17
548 1 116.926 183.775 -5.55112e-17
549 1 22.5181 23.5439 -5.55112e-17
550 2 66.7631 27.3253 -5.55112e-17
551 2 155.314 132.244 -5.55112e-17
552 2 118.154 171.557 -5.55112e-17
553 1 152.082 207.066 -5.55112e-17
554 1 188.856 104.874 -5.55112e-17
555 2 141.184 28.2607 -5.55112e-17
556 1 136.505 71.9268 -5.55112e-17
557 1 216.763 212.512 -5.55112e-17
558 1 177.298 4.59899 -5.55112e-17
559 1 68.5206 80.6415 -5.55112e-17
560 1 202.39 151.116 -5.55112e-17
561 1 90.7097 193.555 -5.55112e-17
562 1 102.467 103.033 -5.55112e-17
563 2 102.284 27.1225 -5.55112e-17
564 1 77.9463 204.332 -5.55112e-17
565 1 154.814 91.116 -5.55112e-17
566 1 70.8522 107.835 -5.55112e-17
567 1 176.074 85.8096 -5.55112e-17
568 1 58.3253 94.4335 -5.55112e-17
569 1 53.8711 151.45 -5.55112e-17
570 1 211.494 114.111 -5.55112e-17
571 1 119.427 55.0093 -5.55112e-17
572 1 19.493 189.044 -5.55112e-17
573 1 13.2614 85.2657 -5.55112e-17
574 1 210.455 59.7226 -5.55112e-17
575 1 59.9818 9.38161 -5.55112e-17
576 1 57.13 154.534 -5.55112e-17
577 1 124.884 95.0887 -5.55112e-17
578 1 207.407 180.369 -5.55112e-17
579 1 187.816 36.3055 -5.55112e-17
580 1 61.0205 151.413 -5.55112e-17
581 1 28.8452 96.7811 -5.55112e-17
582 1 182.611 216.785 -5.55112e-17
583 1 88.0882 161.642 -5.55112e-17
584 2 48.2671 104.367 -5.55112e-17
585 1 158.793 121.451 -5.55112e-17
586 1 19.638 59.4299 -5.55112e-17
587 1 144.207 102.13 -5.55112e-17
588 1 174.052 175.265 -5.55112e-17
589 1 199.138 104.331 -5.55112e-17
590 1 132.549 47.1156 -5.55112e-17
591 1 182.211 108.517 -5.55112e-17
592 1 64.8601 147.517 -5.55112e-17
593 1 156.971 119.758 -5.55112e-17
594 1 32.699 46.3858 -5.55112e-17
595 1 112.173 167.086 -5.55112e-17
596 1 141.197 187.449 -5.55112e-17
597 2 152.028 37.8598 -5.55112e-17
598 1 200.838 185.519 -5.55112e-17
599 1 212.598 75.0928 -5.55112e-17
600 1 165.174 98.2559 -5.55112e-17
601 1 25.5831 69.5457 -5.55112e-17
602 1 25.2568 6.6605 -5.55112e-17
603 1 143.684 213.036 -5.55112e-17
604 1 36.6913 42.1997 -5.55112e-17
605 2 80.5131 42.5505 -5.55112e-17
606 1 216.459 163.18 -5.55112e-17
607 2 169.103 27.3311 -5.55112e-17
608 1 193.654 28.6505 -5.55112e-17
609 1 88.3443 151.771 -5.55112e-17
610 1 93.0666 32.3097 -5.55112e-17
611 1 51.9569 202.894 -5.55112e-17
612 1 214.254 102.234 -5.55112e-17
613 1 145.738 182.108 -5.55112e-17
614 2 19.8733 64.5575 -5.55112e-17
615 1 163.015 208.355 -5.55112e-17
616 1 155.58 193.354 -5.55112e-17
617 1 152.517 89.9901 -5.55112e-17
618 1 150.788 8.39398 -5.55112e-17
619 1 189.676 196.055 -5.55112e-17
620 1 98.4417 144.903 -5.55112e-17
621 1 24.9262 204.938 -5.55112e-17
622 1 129.915 42.385 -5.55112e-17
623 1 11.4163 143.513 -5.55112e-17
624 1 208.871 200.878 -5.55112e-17
625 1 90.8583 132.503 -5.55112e-17
626 1 211.914 56.687 -5.55112e-17
627 1 128.393 114.074 -5.55112e-17
628 1 95.8474 100.55 -5.55112e-17
629 1 54.8982 166.874 -5.55112e-17
630 2 200.897 208.569 -5.55112e-17
631 1 56.2934 201.656 -5.55112e-17
632 1 209.569 92.5249 -5.55112e-17
633 1 123.422 8.58047 -5.55112e-17
634 1 135.21 27.3329 -5.55112e-17
635 1 175.884 193.296 -5.55112e-17
636 1 185.062 34.7166 -5.55112e-17
637 1 202.679 40.239 -5.55112e-17
638 1 26.2356 217.628 -5.55112e-17
639 2 145.038 90.9528 -5.55112e-17
640 1 64.8883 14.9377 -5.55112e-17
641 1 141.796 161.858 -5.55112e-17
642 1 25.6452 79.1059 -5.55112e-17
643 2 120.09 106.857 -5.55112e-17
644 1 182.609 0.153755 -5.55112e-17
645 1 78.6402 171.856 -5.55112e-17
646 2 135.636 95.8414 -5.55112e-17
647 1 185.295 183.962 -5.55112e-17
648 1 28.3141 141.123 -5.55112e-17
649 2 177.516 70.3235 -5.55112e-17
650 1 81.3985 19.9385 -5.55112e-17
651 1 154.656 114.763 -5.55112e-17
652 1 118.253 98.4842 -5.55112e-17
653 1 9.14916 66.3456 -5.55112e-17
654 1 190.002 121.524 -5.55112e-17
655 2 140.704 213.543 -5.55112e-17
656 1 93.6347 28.3325 -5.55112e-17
657 2 67.4847 13.8077 -5.55112e-17
658 1 61.6949 106.969 -5.55112e-17
659 2 24.4912 114.298 -5.55112e-17
660 1 51.8926 42.4441 -5.55112e-17
661 1 52.1458 217.996 -5.55112e-17
662 1 196.56 9.73709 -5.55112e-17
663 1 73.1242 163.494 -5.55112e-17
664 1 74.3715 59.9551 -5.55112e-17
665 1 67.4834 130.809 -5.55112e-17
666 2 36.7017 173.048 -5.55112e-17
667 1 56.2346 31.1486 -5.55112e-17
668 2 211.429 7.8353 -5.55112e-17
669 1 190.534 50.2076 -5.55112e-17
670 1 95.7688 155.65 -5.55112e-17
671 2 171.625 161.335 -5.55112e-17
672 1 195.84 1.22331 -5.55112e-17
673 1 203.556 77.2841 -5.55112e-17
674 1 84.5046 206.522 -5.55112e-17
675 1 204.589 84.6151 -5.55112e-17
676 1 146.465 30.0798 -5.55112e-17
677 1 91.8485 103.66 -5.55112e-17
678 1 85.067 20.2672 -5.55112e-17
679 2 170.385 116.776 -5.55112e-17
680 1 143.142 159.669 -5.55112e-17
681 2 191.231 7.01877 -5.55112e-17
682 1 61.4463 74.5006 -5.55112e-17
683 1 94.456 30.4944 -5.55112e-17
684 1 200.369 163.847 -5.55112e-17
685 1 55.7842 41.1772 -5.55112e-17
686 1 200.248 144.008 -5.55112e-17
687 1 117.113 55.7564 -5.55112e-17
688 1 93.5872 116.606 -5.55112e-17
689 2 157.472 126.877 -5.55112e-17
690 1 29.8216 183.399 -5.55112e-17
691 1 45.5265 3.3457 -5.55112e-17
692 1 49.994 113.304 -5.55112e-17
693 1 106.665 199.921 -5.55112e-17
694 1 162.571 54.6273 -5.55112e-17
695 1 189.023 98.0041 -5.55112e-17
696 1 106.363 211.662 -5.55112e-17
697 1 23.7715 83.6961 -5.55112e-17
698 1 167.008 100.061 -5.55112e-17
699 1 81.8696 49.0384 -5.55112e-17
700 1 201.555 191.511 -5.55112e-17
701 1 4.99206 53.8087 -5.55112e-17
702 1 133.489 78.3696 -5.55112e-17
703 2 1.49691 133.345 -5.55112e-17
704 1 184.293 181.454 -5.55112e-17
705 2 152.81 86.4227 -5.55112e-17
706 1 40.2831 159.914 -5.55112e-17
707 1 158.509 50.9047 -5.55112e-17
708 1 173.396 18.8562 -5.55112e-17
709 1 194.059 7.91897 -5.55112e-17
710 1 56.1039 25.8906 -5.55112e-17
711 1 22.9419 186.862 -5.55112e-17
712 1 153.972 44.0369 -5.55112e-17
713 1 26.4172 100.98 -5.55112e-17
714 1 116.773 199.751 -5.55112e-17
715 1 106.589 6.22615 -5.55112e-17
716 1 204.727 79.8153 -5.55112e-17
717 1 180.19 10.7845 -5.55112e-17
718 1 178.856 17.2672 -5.55112e-17
719 2 46.8541 175.101 -5.55112e-17
720 1 172.736 218.195 -5.55112e-17
721 1 89.5621 1.74623 -5.55112e-17
722 1 65.1617 84.049 -5.55112e-17
723 2 166.101 26.9314 -5.55112e-17
724 1 120.42 74.8587 -5.55112e-17
725 1 116.391 143.321 -5.55112e-17
726 1 98.675 71.7442 -5.55112e-17
727 1 159.152 66.4621 -5.55112e-17
728 2 197.676 19.2611 -5.55112e-17
729 1 44.1469 189.186 -5.55112e-17
730 1 210.999 167.973 -5.55112e-17
731 1 216.118 45.6658 -5.55112e-17
732 1 209.909 75.2103 -5.55112e-17
733 1 61.8368 182.949 -5.55112e-17
734 1 59.3961 194.408 -5.55112e-17
735 1 84.089 110.692 -5.55112e-17
736 2 208.915 194.532 -5.55112e-17
737 1 174.872 44.2028 -5.55112e-17
738 1 55.32 136.324 -5.55112e-17
739 1 126.192 92.7342 -5.55112e-17
740 1 173.134 210.999 -5.55112e-17
741 2 55.2521 33.866 -5.55112e-17
742 1 93.9056 76.24 -5.55112e-17
743 1 197.853 201.95 -5.55112e-17
744 2 53.8285 105.366 -5.55112e-17
745 1 152.345 211.607 -5.55112e-17
746 1 184.886 201.124 -5.55112e-17
747 2 160.272 83.388 -5.55112e-17
748 1 34.6901 212.333 -5.55112e-17
749 1 95.2942 148.808 -5.55112e-17
750 1 72.9351 57.2983 -5.55112e-17
751 1 114.248 182.975 -5.55112e-17
752 1 67.8401 66.5225 -5.55112e-17
753 1 126.809 170.462 -5.55112e-17
754 1 77.7336 72.355 -5.55112e-17
755 1 2.67634 16.2793 -5.55112e-17
756 2 101.995 185.016 -5.55112e-17
757 1 159.308 113.774 -5.55112e-17
758 1 53.7376 184.702 -5.55112e-17
759 1 105.143 168.792 -5.55112e-17
760 1 83.1547 40.9117 -5.55112e-17
761 1 62.8776 13.2693 -5.55112e-17
762 1 182.996 26.7131 -5.55112e-17
763 1 127.101 122.268 -5.55112e-17
764 2 85.2897 160.92 -5.55112e-17
765 1 19.1565 40.3906 -5.55112e-17
766 1 28.3175 218.906 -5.55112e-17
767 1 130.74 99.5419 -5.55112e-17
768 1 201.675 16.0703 -5.55112e-17
769 1 176.899 135.07 -5.55112e-17
770 2 58.9348 115.981 -5.55112e-17
771 1 27.1703 156.813 -5.55112e-17
772 1 78.1566 183.944 -5.55112e-17
773 1 24.189 58.6801 -5.55112e-17
774 1 34.3047 188.846 -5.55112e-17
775 1 113.55 187.886 -5.55112e-17
776 1 11.9112 137.947 -5.55112e-17
777 1 1.70388 176.562 -5.55112e-17
778 1 50.8041 190.548 -5.55112e-17
779 1 134.472 213.724 -5.55112e-17
780 1 93.807 49.4863 -5.55112e-17
781 1 40.3974 111.637 -5.55112e-17
782 1 199.228 175.959 -5.55112e-17
783 1 65.2638 1.5173 -5.55112e-17
784 2 91.5723 158.245 -5.55112e-17
785 1 181.08 211.53 -5.55112e-17
786 1 19.7864 86.9147 -5.55112e-17
787 1 162.978 17.2859 -5.55112e-17
788 1 201.483 216.193 -5.55112e-17
789 2 38.9361 70.5806 -5.55112e-17
790 1 160.86 4.28867 -5.55112e-17
791 2 147.064 0.564473 -5.55112e-17
792 2 206.195 127.949 -5.55112e-17
793 2 152.6 40.7674 -5.55112e-17
794 1 50.5536 167.524 -5.55112e-17
795 1 139.694 125.629 -5.55112e-17
796 1 106.94 174.392 -5.55112e-17
797 1 168.957 135.421 -5.55112e-17
798 2 56.1675 149.308 -5.55112e-17
799 2 206.169 44.4149 -5.55112e-17
800 2 48.4325 199.368 -5.55112e-17
801 1 203.439 14.0278 -5.55112e-17
802 1 144.752 170.591 -5.55112e-17
803 1 64.7226 118.86 -5.55112e-17
804 2 96.6558 136.124 -5.55112e-17
805 1 77.4779 34.0894 -5.55112e-17
806 1 69.0678 173.857 -5.55112e-17
807 2 10.184 25.064 -5.55112e-17
808 1 58.5279 142.996 -5.55112e-17
809 2 112.231 170.48 -5.55112e-17
810 1 96.8979 146.862 -5.55112e-17
811 1 125.651 209.406 -5.55112e-17
812 1 38.8085 1.83446 -5.55112e-17
813 2 70.8754 65.1399 -5.55112e-17
814 1 130.351 133.913 -5.55112e-17
815 1 198.599 32.0313 -5.55112e-17
816 1 69.9512 90.0709 -5.55112e-17
817 1 147.312 148.905 -5.55112e-17
818 1 56.7891 206.568 -5.55112e-17
819 1 26.4474 74.3929 -5.55112e-17
820 1 11.7594 216.93 -5.55112e-17
821 1 7.61035 207.191 -5.55112e-17
822 2 176.336 88.9996 -5.55112e-17
823 2 177.829 204.138 -5.55112e-17
824 1 75.1947 94.2506 -5.55112e-17
825 1 7.35156 172.099 -5.55112e-17
826 1 152.873 156.598 -5.55112e-17
827 1 182.474 105.916 -5.55112e-17
828 1 73.9923 26.9287 -5.55112e-17
829 1 7.97566 212.446 -5.55112e-17
830 1 149.767 40.0827 -5.55112e-17
831 1 119.859 139.957 -5.55112e-17
832 1 146.232 159.596 -5.55112e-17
833 1 193.478 70.4864 -5.55112e-17
834 1 120.853 114.886 -5.55112e-17
835 1 212.353 17.9772 -5.55112e-17
836 1 19.4801 18.628 -5.55112e-17
837 1 173.517 149.719 -5.55112e-17
838 1 59.3415 145.389 -5.55112e-17
839 2 54.9172 208.695 -5.55112e-17
840 1 167.433 116.767 -5.55112e-17
841 2 71.6364 194.366 -5.55112e-17
842 1 50.3484 213.92 -5.55112e-17
843 2 17.3012 91.9112 -5.55112e-17
844 1 86.0864 135.729 -5.55112e-17
845 1 53.1522 89.4752 -5.55112e-17
846 1 82.8177 196.02 -5.55112e-17
847 1 109.844 27.1821 -5.55112e-17
848 1 138.674 127.942 -5.55112e-17
849 1 86.8413 207.998 -5.55112e-17
850 1 201.047 120.709 -5.55112e-17
851 1 64.447 211.746 -5.55112e-17
852 1 29.7743 147.517 -5.55112e-17
853 1 170.056 71.6195 -5.55112e-17
854 1 139.841 182.423 -5.55112e-17
855 1 170.641 94.3215 -5.55112e-17
856 1 14.422 43.0556 -5.55112e-17