ITEM: TIMESTEP
0
ITEM: NUMBER OF ATOMS
7200
ITEM: BOX BOUNDS xy xz yz pp pp pp
0.0000000000000000e+00 2.1900000000000000e+02 0.0000000000000000e+00
0.0000000000000000e+00 2.1900000000000000e+02 0.0000000000000000e+00
-3.6499999999999999e-01 3.6499999999999999e-01 0.0000000000000000e+00
ITEM: ATOMS id type x y z
1 1 29.0755 119.595 -5.55112e-17
2 1 25.6508 184.652 -5.55112e-17
3 1 54.6257 162.226 -5.55112e-17
4 1 209.5 34.8211 -5.55112e-17
5 1 114.192 166.316 -5.55112e-17
6 1 159.669 151.999 -5.55112e-17
7 1 186.406 6.81313 -5.55112e-17
8 2 37.7782 116.67 -5.55112e-17
9 1 20.3092 182.635 -5.55112e-17
10 2 55.7638 49.572 -5.55112e-17
11 1 34.5331 129.965 -5.55112e-17
12 1 89.1795 20.7251 -5.55112e-17
13 2 101.341 210.934 -5.55112e-17
14 1 78.566 197.548 -5.55112e-17
15 1 81.471 208.692 -5.55112e-17
16 2 130.67 9.27313 -5.55112e-17
17 1 140.881 129.726 -5.55112e-17
18 2 87.3512 214.513 -5.55112e-17
19 1 57.1015 118.265 -5.55112e-17
20 1 37.7668 170.677 -5.55112e-17
21 1 151.504 3.35418 -5.55112e-17
22 2 49.7014 194.839 -5.55112e-17
23 2 35.3524 190.464 -5.55112e-17
24 1 7.91025 183.111 -5.55112e-17
25 1 106.986 96.5672 -5.55112e-17
26 2 11.373 154.202 -5.55112e-17
27 1 46.6902 98.131 -5.55112e-17
28 2 43.8078 72.481 -5.55112e-17
29 1 126.941 200.386 -5.55112e-17
30 1 9.57806 27.9427 -5.55112e-17
31 1 39.5776 124.859 -5.55112e-17
32 1 68.5333 205.695 -5.55112e-17
33 1 217.735 89.3042 -5.55112e-17
34 1 133.327 81.8515 -5.55112e-17
35 1 201.115 108.813 -5.55112e-17
36 1 127.178 149.279 -5.55112e-17
37 2 45.926 150.166 -5.55112e-17
38 1 40.9002 140.31 -5.55112e-17
39 1 151.709 174.399 -5.55112e-17
40 1 35.0103 199.555 -5.55112e-17
41 1 84.1362 214.023 -5.55112e-17
42 1 176.223 121.776 -5.55112e-17
43 1 41.0721 102.953 -5.55112e-17
44 1 189.971 82.0258 -5.55112e-17
45 1 211.194 26.0128 -5.55112e-17
46 1 2.00873 34.4875 -5.55112e-17
47 1 77.6718 30.16 -5.55112e-17
48 2 16.632 166.189 -5.55112e-17
49 1 17.9737 88.0254 -5.55112e-17
50 1 10.3983 132.531 -5.55112e-17
51 1 16.3481 52.9727 -5.55112e-17
52 1 138.559 55.5538 -5.55112e-17
53 1 38.2355 68.3198 -5.55112e-17
54 1 21.8386 217.289 -5.55112e-17
55 1 39.2058 13.0216 -5.55112e-17
56 1 44.8358 27.5287 -5.55112e-17
57 2 206.308 173.956 -5.55112e-17
58 1 14.0559 149.821 -5.55112e-17
59 1 168.134 96.4007 -5.55112e-17
60 2 76.5233 188.406 -5.55112e-17
61 2 150.087 95.1192 -5.55112e-17
62 1 72.1831 116.815 -5.55112e-17
63 1 74.0597 189.607 -5.55112e-17
64 1 139.241 82.1241 -5.55112e-17
65 1 165.022 158.754 -5.55112e-17
66 1 115.875 184.366 -5.55112e-17
67 1 186.499 143.964 -5.55112e-17
68 1 116.347 132.381 -5.55112e-17
69 1 16.2825 144.986 -5.55112e-17
70 1 205.423 72.0533 -5.55112e-17
71 1 137.288 57.4349 -5.55112e-17
72 1 111.43 207.506 -5.55112e-17
73 1 12.9468 103.461 -5.55112e-17
74 1 90.7008 117.244 -5.55112e-17
75 2 57.8295 54.8069 -5.55112e-17
76 1 178.072 142.757 -5.55112e-17
77 1 110.05 46.3635 -5.55112e-17
78 1 142.908 6.0745 -5.55112e-17
79 2 146.399 16.7249 -5.55112e-17
80 1 154.063 36.9863 -5.55112e-17
81 1 191.93 176.186 -5.55112e-17
82 1 165.893 181.692 -5.55112e-17
83 2 73.0256 192.291 -5.55112e-17
84 1 166.335 87.1917 -5.55112e-17
85 1 175.504 148.867 -5.55112e-17
86 1 28.2226 203.17 -5.55112e-17
87 1 38.2172 140.651 -5.55112e-17
88 1 99.8401 45.4868 -5.55112e-17
89 2 132.265 130.177 -5.55112e-17
90 2 178.027 79.7784 -5.55112e-17
91 1 110.975 203.2 -5.55112e-17
92 2 52.143 133.062 -5.55112e-17
93 1 28.5257 13.866 -5.55112e-17
94 2 147.308 143.249 -5.55112e-17
95 1 143.364 53.2098 -5.55112e-17
96 1 137.775 88.9196 -5.55112e-17
97 1 155.341 44.8305 -5.55112e-17
98 1 109.236 116.715 -5.55112e-17
99 1 204.325 160.378 -5.55112e-17
100 1 106.71 200.829 -5.55112e-17
101 1 4.44696 35.1245 -5.55112e-17
102 1 67.0813 172.844 -5.55112e-17
103 1 74.4652 194.737 -5.55112e-17
104 1 130.61 132.451 -5.55112e-17
105 1 13.0047 7.80513 -5.55112e-17
106 1 198.625 48.7309 -5.55112e-17
107 2 201.373 113.807 -5.55112e-17
108 1 57.887 189.766 -5.55112e-17
109 1 167.123 202.296 -5.55112e-17
110 1 116.953 6.1116 -5.55112e-17
111 1 55.6212 78.0989 -5.55112e-17
112 1 58.859 32.424 -5.55112e-17
113 1 45.5138 49.5235 -5.55112e-17
114 1 127.109 136.99 -5.55112e-17
115 1 168.475 174.672 -5.55112e-17
116 2 107.08 133.019 -5.55112e-17
117 1 49.1314 19.9088 -5.55112e-17
118 1 41.1595 65.3409 -5.55112e-17
119 2 89.5933 182.095 -5.55112e-17
120 1 13.508 20.3311 -5.55112e-17
121 1 156.762 32.7546 -5.55112e-17
122 1 54.8362 4.04886 -5.55112e-17
123 1 85.7539 200.221 -5.55112e-17
124 1 90.935 140.75 -5.55112e-17
125 1 124.754 62.9419 -5.55112e-17
126 1 6.01513 5.02674 -5.55112e-17
127 1 72.5606 130.774 -5.55112e-17
128 1 179.417 171.559 -5.55112e-17
129 1 6.64768 129.185 -5.55112e-17
130 1 202.576 187.255 -5.55112e-17
131 1 141.513 71.3789 -5.55112e-17
132 2 152.033 38.9956 -5.55112e-17
133 1 180.776 27.4587 -5.55112e-17
134 1 177.876 60.2997 -5.55112e-17
135 1 218.609 10.074 -5.55112e-17
136 1 8.72219 102.461 -5.55112e-17
137 1 46.344 60.0901 -5.55112e-17
138 1 111.786 56.7881 -5.55112e-17
139 1 37.4847 199.737 -5.55112e-17
140 2 93.3169 116.111 -5.55112e-17
141 1 99.5903 25.3888 -5.55112e-17
142 2 83.0054 45.0223 -5.55112e-17
143 1 176.173 45.9198 -5.55112e-17
144 2 142.965 43.3389 -5.55112e-17
145 1 147.363 61.843 -5.55112e-17
146 1 94.2569 134.924 -5.55112e-17
147 1 158.228 184.28 -5.55112e-17
148 1 45.9054 114.992 -5.55112e-17
149 1 150.479 136.234 -5.55112e-17
150 1 109.788 215.39 -5.55112e-17
151 1 53.5851 41.0517 -5.55112e-17
152 1 120.659 187.387 -5.55112e-17
153 2 205.224 24.4428 -5.55112e-17
154 1 34.6406 204.122 -5.55112e-17
155 1 86.2574 11.2881 -5.55112e-17
156 2 113.255 9.2052 -5.55112e-17
157 1 94.717 53.3446 -5.55112e-17
158 1 178.205 40.4795 -5.55112e-17
159 1 196.577 125.121 -5.55112e-17
160 1 188.931 61.2443 -5.55112e-17
161 1 43.3156 130.39 -5.55112e-17
162 1 13.3202 175.942 -5.55112e-17
163 1 168.063 76.7641 -5.55112e-17
164 1 85.9593 209.411 -5.55112e-17
165 1 19.3957 165.373 -5.55112e-17
166 2 110.466 156.631 -5.55112e-17
167 1 11.2805 135.016 -5.55112e-17
168 1 204.687 211.973 -5.55112e-17
169 1 61.2572 104.139 -5.55112e-17
170 1 28.0445 136.829 -5.55112e-17
171 1 58.9311 82.2327 -5.55112e-17
172 1 210.882 0.12906 -5.55112e-17
173 1 61.0938 7.155 -5.55112e-17
174 1 202.55 150.138 -5.55112e-17
175 2 27.0596 42.9018 -5.55112e-17
176 1 27.879 24.9029 -5.55112e-17
177 2 23.9716 99.5631 -5.55112e-17
178 1 159.412 70.0055 -5.55112e-17
179 1 128.24 66.1051 -5.55112e-17
180 1 130.358 101.599 -5.55112e-17
181 1 36.2392 139.191 -5.55112e-17
182 2 195.793 12.518 -5.55112e-17
183 1 156.151 87.1821 -5.55112e-17
184 1 106.532 135.831 -5.55112e-17
185 2 137.503 139.817 -5.55112e-17
186 2 202.085 25.2281 -5.55112e-17
187 1 134.969 154.519 -5.55112e-17
188 1 193.056 11.7177 -5.55112e-17
189 1 66.5609 160.33 -5.55112e-17
190 2 10.5545 124.704 -5.55112e-17
191 1 185.267 102.216 -5.55112e-17
192 2 50.4862 152.8 -5.55112e-17
193 2 162.51 160.095 -5.55112e-17
194 1 169.998 4.84006 -5.55112e-17
195 1 67.8985 201.613 -5.55112e-17
196 1 82.588 218.564 -5.55112e-17
197 1 110.529 121.43 -5.55112e-17
198 2 134.236 200.6 -5.55112e-17
199 1 179.355 183.831 -5.55112e-17
200 1 77.0343 212 -5.55112e-17
201 2 188.17 12.4807 -5.55112e-17
202 1 29.7381 79.7841 -5.55112e-17
203 1 193.377 180.448 -5.55112e-17
204 1 7.76351 114.959 -5.55112e-17
205 2 182.899 38.3353 -5.55112e-17
206 1 82.3239 82.8618 -5.55112e-17
207 1 167.329 1.13858 -5.55112e-17
208 1 44.5317 170.882 -5.55112e-17
209 1 172.986 45.4168 -5.55112e-17
210 1 180.512 110.673 -5.55112e-17
211 2 74.1505 168.411 -5.55112e-17
212 1 43.4276 191.889 -5.55112e-17
213 1 140.614 117.08 -5.55112e-17
214 1 201.036 202.936 -5.55112e-17
215 1 172.913 107.605 -5.55112e-17
216 1 200.771 20.3378 -5.55112e-17
217 1 161.293 76.522 -5.55112e-17
218 2 214.078 30.5814 -5.55112e-17
219 1 209.606 205.223 -5.55112e-17
220 2 73.113 128.106 -5.55112e-17
221 1 34.0694 67.6681 -5.55112e-17
222 1 30.7979 182.226 -5.55112e-17
223 1 90.7419 34.0323 -5.55112e-17
224 2 149.592 162.933 -5.55112e-17
225 1 188.002 108.431 -5.55112e-17
226 1 203.961 76.9442 -5.55112e-17
227 2 150.445 103.496 -5.55112e-17
228 1 3.39628 195.869 -5.55112e-17
229 1 182.21 79.1425 -5.55112e-17
230 1 158.673 142.538 -5.55112e-17
231 1 169.642 91.9596 -5.55112e-17
232 1 61.2666 175.504 -5.55112e-17
233 1 60.0485 122.079 -5.55112e-17
234 1 70.9839 157.929 -5.55112e-17
235 1 176.523 213.375 -5.55112e-17
236 1 178.253 166.394 -5.55112e-17
237 1 175.213 13.1077 -5.55112e-17
238 1 112.468 54.3387 -5.55112e-17
239 2 188.371 48.5674 -5.55112e-17
240 1 204.092 5.52087 -5.55112e-17
241 2 86.2805 14.7079 -5.55112e-17
242 2 130.278 27.2668 -5.55112e-17
243 2 198.873 193.754 -5.55112e-17
244 1 68.798 194.687 -5.55112e-17
245 1 55.7983 56.8295 -5.55112e-17
246 1 42.3651 23.2002 -5.55112e-17
247 1 156.464 89.6839 -5.55112e-17
248 1 30.9832 1.29756 -5.55112e-17
249 1 41.6094 126.329 -5.55112e-17
250 2 136.976 196.457 -5.55112e-17
251 1 214.047 195.876 -5.55112e-17
252 1 24.9183 192.313 -5.55112e-17
253 1 207.483 16.9133 -5.55112e-17
254 2 150.643 41.8872 -5.55112e-17
255 1 120.64 3.71884 -5.55112e-17
256 1 151.653 7.91794 -5.55112e-17
257 1 146.955 13.6072 -5.55112e-17
258 2 33.9459 196.729 -5.55112e-17
259 1 69.6005 110.364 -5.55112e-17
260 1 131.486 135.805 -5.55112e-17
261 1 17.1785 174.352 -5.55112e-17
262 1 50.7428 117.809 -5.55112e-17
263 1 150.332 148.304 -5.55112e-17
264 1 42.9189 1.4471 -5.55112e-17
265 1 184.417 5.79405 -5.55112e-17
266 1 68.3616 168.241 -5.55112e-17
267 1 39.4584 198.257 -5.55112e-17
268 1 182.579 207.284 -5.55112e-17
269 1 47.6771 192.87 -5.55112e-17
270 1 6.79992 151.928 -5.55112e-17
271 1 52.4417 194.028 -5.55112e-17
272 1 157.314 133.774 -5.55112e-17
273 1 158.99 106.867 -5.55112e-17
274 2 56.6498 121.163 -5.55112e-17
275 1 217.519 209.868 -5.55112e-17
276 2 45.7741 168.529 -5.55112e-17
277 2 5.4559 154.348 -5.55112e-17
278 1 11.552 81.8967 -5.55112e-17
279 2 69.3672 38.567 -5.55112e-17
280 1 178.495 91.6597 -5.55112e-17
281 1 196.042 163.631 -5.55112e-17
282 1 216.492 96.1944 -5.55112e-17
283 1 29.7722 89.2841 -5.55112e-17
284 1 188.566 141.15 -5.55112e-17
285 1 204.812 74.4292 -5.55112e-17
286 2 209.739 15.4696 -5.55112e-17
287 1 214.367 173.203 -5.55112e-17
288 1 11.8742 118.799 -5.55112e-17
289 1 101.558 195.13 -5.55112e-17
290 1 166.425 97.9608 -5.55112e-17
291 1 23.93 38.2264 -5.55112e-17
292 2 59.1662 90.2113 -5.55112e-17
293 2 156.901 74.9016 -5.55112e-17
294 1 77.2414 108.397 -5.55112e-17
295 1 98.8661 50.6929 -5.55112e-17
296 1 60.2757 211.575 -5.55112e-17
297 1 12.5397 87.9594 -5.55112e-17
298 1 78.6077 27.408 -5.55112e-17
299 1 86.4183 8.69088 -5.55112e-17
300 2 17.2559 130.207 -5.55112e-17
301 1 77.9091 158.856 -5.55112e-17
302 1 118.623 116.184 -5.55112e-17
303 2 97.6392 191.069 -5.55112e-17
304 2 91.6024 185.386 -5.55112e-17
305 1 81.5687 188.751 -5.55112e-17
306 1 40.8843 218.482 -5.55112e-17
307 1 70.436 187.401 -5.55112e-17
308 1 13.5642 83.4899 -5.55112e-17
309 2 164.706 140.164 -5.55112e-17
310 1 188.35 130.682 -5.55112e-17
311 1 203.848 37.1783 -5.55112e-17
312 1 210.324 36.9153 -5.55112e-17
313 2 30.0046 16.3033 -5.55112e-17
314 1 194.303 84.1491 -5.55112e-17
315 1 188.354 56.3716 -5.55112e-17
316 1 110.276 19.8869 -5.55112e-17
317 1 160.719 42.0826 -5.55112e-17
318 1 148.946 80.8634 -5.55112e-17
319 1 47.9965 182.899 -5.55112e-17
320 1 131.262 181.689 -5.55112e-17
321 1 53.6762 32.4127 -5.55112e-17
322 1 42.0326 74.7607 -5.55112e-17
323 1 16.367 196.471 -5.55112e-17
324 1 82.4551 133.948 -5.55112e-17
325 1 66.6173 185.287 -5.55112e-17
326 1 191.346 171.538 -5.55112e-17
327 2 170.399 64.8731 -5.55112e-17
328 1 109.633 57.8226 -5.55112e-17
329 2 208.813 80.2666 -5.55112e-17
330 1 98.414 123.22 -5.55112e-17
331 1 107.552 118.544 -5.55112e-17
332 2 11.3275 164.241 -5.55112e-17
333 1 92.4297 155.195 -5.55112e-17
334 1 95.3347 90.8067 -5.55112e-17
335 1 119.988 161.501 -5.55112e-17
336 1 156.132 154.894 -5.55112e-17
337 1 98.5082 101.727 -5.55112e-17
338 1 6.77517 0.580652 -5.55112e-17
339 1 111.084 31.4776 -5.55112e-17
340 1 88.6081 195.497 -5.55112e-17
341 1 14.8016 131.308 -5.55112e-17
342 1 19.4767 208.93 -5.55112e-17
343 1 8.74085 127.38 -5.55112e-17
344 1 95.1605 58.4878 -5.55112e-17
345 1 194.837 44.9326 -5.55112e-17
346 1 150.275 62.5324 -5.55112e-17
347 1 78.0718 200.162 -5.55112e-17
348 1 202.251 124.913 -5.55112e-17
349 1 54.5422 145.876 -5.55112e-17
350 2 25.7763 147.234 -5.55112e-17
351 1 192.152 21.7316 -5.55112e-17
352 1 158.847 99.8437 -5.55112e-17
353 1 195.731 62.0581 -5.55112e-17
354 1 19.4384 173.031 -5.55112e-17
355 1 134.894 32.0938 -5.55112e-17
356 1 115.975 64.3675 -5.55112e-17
357 1 52.3707 10.2007 -5.55112e-17
358 1 140.657 127.256 -5.55112e-17
359 1 128.095 188.049 -5.55112e-17
360 1 217.424 75.4435 -5.55112e-17
361 1 1.38531 84.8416 -5.55112e-17
362 1 172.559 152.416 -5.55112e-17
363 1 194.617 148.845 -5.55112e-17
364 2 63.1434 27.4274 -5.55112e-17
365 1 79.1276 35.8304 -5.55112e-17
366 1 17.8636 54.8194 -5.55112e-17
367 1 104.939 141.806 -5.55112e-17
368 1 18.4795 85.4085 -5.55112e-17
369 2 194.893 106.064 -5.55112e-17
370 1 113.145 81.9114 -5.55112e-17
371 1 201.318 142.36 -5.55112e-17
372 2 52.909 200.83 -5.55112e-17
373 2 150.524 185.94 -5.55112e-17
374 1 115.223 25.6415 -5.55112e-17
375 1 143.758 212.876 -5.55112e-17
376 1 142.616 157.87 -5.55112e-17
377 1 63.4248 77.1069 -5.55112e-17
378 1 93.687 7.93958 -5.55112e-17
379 1 136.968 69.1238 -5.55112e-17
380 1 60.3458 42.8994 -5.55112e-17
381 1 155.925 178.48 -5.55112e-17
382 1 47.5532 152.875 -5.55112e-17
383 1 5.74189 60.0323 -5.55112e-17
384 1 147.938 189.197 -5.55112e-17
385 1 178.065 132.494 -5.55112e-17
386 2 78.7108 153.479 -5.55112e-17
387 1 33.1493 183.301 -5.55112e-17
388 1 139.085 70.2956 -5.55112e-17
389 1 50.0284 131.229 -5.55112e-17
390 2 175.855 103.826 -5.55112e-17
391 2 155.758 114.621 -5.55112e-17
392 1 63.5746 14.9107 -5.55112e-17
393 1 211.247 203.071 -5.55112e-17
394 1 23.9082 178.705 -5.55112e-17
395 1 87.0111 177.896 -5.55112e-17
396 1 20.0204 34.8736 -5.55112e-17
397 1 47.684 147.828 -5.55112e-17
398 1 132.789 155.219 -5.55112e-17
399 1 59.5485 184.974 -5.55112e-17
400 1 122.552 17.0846 -5.55112e-17
401 1 78.1317 94.0654 -5.55112e-17
402 2 36.9814 90.9242 -5.55112e-17
403 1 9.32023 151.336 -5.55112e-17
404 1 20.5942 13.7127 -5.55112e-17
405 1 65.2889 100.595 -5.55112e-17
406 1 179.917 77.5842 -5.55112e-17
407 2 121.393 200.411 -5.55112e-17
408 1 106.446 130.188 -5.55112e-17
409 1 150.89 15.7096 -5.55112e-17
410 1 123.694 141.628 -5.55112e-17
411 1 27.4095 63.4346 -5.55112e-17
412 1 104.96 137.944 -5.55112e-17
413 1 181.488 193.15 -5.55112e-17
414 1 209.126 48.9633 -5.55112e-17
415 1 116.975 170.657 -5.55112e-17
416 1 176.378 188.461 -5.55112e-17
417 1 157.398 175.965 -5.55112e-17
418 2 70.0673 121.445 -5.55112e-17
419 1 186.163 3.95702 -5.55112e-17
420 2 68.6201 5.5211 -5.55112e-17
421 1 213.146 54.9926 -5.55112e-17
422 1 197.449 105.273 -5.55112e-17
423 2 26.1541 198.678 -5.55112e-17
424 1 44.9786 147.312 -5.55112e-17
425 1 78.5455 168.711 -5.55112e-17
426 1 184.002 58.7145 -5.55112e-17
427 1 55.5929 44.9575 -5.55112e-17
428 1 176.921 155.402 -5.55112e-17
429 1 169.904 134.025 -5.55112e-17
430 1 25.2326 111.113 -5.55112e-17
431 1 16.1001 95.7181 -5.55112e-17
432 1 45.5628 165.702 -5.55112e-17
433 1 63.3575 110.841 -5.55112e-17
434 1 58.0316 97.6958 -5.55112e-17
435 1 74.0092 36.2465 -5.55112e-17
436 1 45.0032 47.2632 -5.55112e-17
437 1 19.2538 29.9522 -5.55112e-17
438 2 182.953 148.065 -5.55112e-17
439 1 106.892 143.242 -5.55112e-17
440 1 205.162 106.804 -5.55112e-17
441 1 102.739 18.4501 -5.55112e-17
442 1 86.9568 64.7624 -5.55112e-17
443 1 211.546 144.23 -5.55112e-17
444 1 192.834 118.035 -5.55112e-17
445 1 179.821 100.581 -5.55112e-17
446 1 15.0152 137.724 -5.55112e-17
447 1 2.57665 155.396 -5.55112e-17
448 1 91.4396 26.4026 -5.55112e-17
449 1 121.379 1.22938 -5.55112e-17
450 1 207.516 13.7232 -5.55112e-17
451 1 171.287 162.604 -5.55112e-17
452 1 4.57629 151.057 -5.55112e-17
453 1 144.445 37.7517 -5.55112e-17
454 1 90.9324 163.705 -5.55112e-17
455 1 112.714 198.035 -5.55112e-17
456 1 179.709 126.445 -5.55112e-17
457 1 7.32517 204.807 -5.55112e-17
458 1 18.2434 66.206 -5.55112e-17
459 1 181.785 22.7192 -5.55112e-17
460 1 6.55335 12.5903 -5.55112e-17
461 1 59.9551 145.707 -5.55112e-17
462 1 10.3476 3.40721 -5.55112e-17
463 1 190.926 187.961 -5.55112e-17
464 1 97.4162 44.729 -5.55112e-17
465 1 194.536 81.6397 -5.55112e-17
466 1 150.58 20.5149 -5.55112e-17
467 1 101.523 11.4214 -5.55112e-17
468 1 183.746 40.9355 -5.55112e-17
469 1 171.531 193.448 -5.55112e-17
470 1 18.2925 119.836 -5.55112e-17
471 1 76.4945 196.047 -5.55112e-17
472 1 111.731 176.511 -5.55112e-17
473 1 74.441 117.62 -5.55112e-17
474 1 143.144 171.849 -5.55112e-17
475 1 181.356 215.801 -5.55112e-17
476 2 138.918 9.52716 -5.55112e-17
477 1 156.341 24.3468 -5.55112e-17
478 1 154.072 26.2401 -5.55112e-17
479 1 96.2634 104.382 -5.55112e-17
480 1 157.031 188.805 -5.55112e-17
481 1 207.196 41.0836 -5.55112e-17
482 1 145.721 154.69 -5.55112e-17
483 1 128.06 10.2781 -5.55112e-17
484 2 38.3528 4.11315 -5.55112e-17
485 1 160.588 105.023 -5.55112e-17
486 1 199.647 103.464 -5.55112e-17
487 1 88.3809 139.819 -5.55112e-17
488 1 97.7283 160.643 -5.55112e-17
489 1 135.011 172.37 -5.55112e-17
490 1 25.838 175.556 -5.55112e-17
491 1 22.1075 101.684 -5.55112e-17
492 1 21.1897 98.9393 -5.55112e-17
493 1 100.553 135.867 -5.55112e-17
494 1 159.65 204.489 -5.55112e-17
495 1 175.755 61.8863 -5.55112e-17
496 2 21.8481 129.106 -5.55112e-17
497 1 128.995 109.347 -5.55112e-17
498 1 136.761 193.521 -5.55112e-17
499 2 107.426 42.4114 -5.55112e-17
500 1 118.811 199.884 -5.55112e-17
501 2 180.791 41.1093 -5.55112e-17
502 2 9.83232 8.34462 -5.55112e-17
503 1 181.935 138.613 -5.55112e-17
504 1 147.351 56.8658 -5.55112e-17
505 1 165.093 106.796 -5.55112e-17
506 1 187.279 183.462 -5.55112e-17
507 1 83.685 210.395 -5.55112e-17
508 1 138.416 62.0848 -5.55112e-17
509 2 157.841 136.803 -5.55112e-17
510 2 36.0465 211.971 -5.55112e-17
511 1 57.8492 211.342 -5.55112e-17
512 2 156.103 106.889 -5.55112e-17
513 1 125.934 176.333 -5.55112e-17
514 1 169.729 101.503 -5.55112e-17
515 1 29.3876 205.571 -5.55112e-17
516 1 35.7469 158.717 -5.55112e-17
517 1 56.8857 173.623 -5.55112e-17
518 2 0.191117 66.2533 -5.55112e-17
519 1 109.329 11.4101 -5.55112e-17
520 2 39.3635 75.5397 -5.55112e-17
521 1 121.695 111.408 -5.55112e-17
522 1 148.527 105.558 -5.55112e-17
523 1 169.177 116.083 -5.55112e-17
524 1 142.897 186.093 -5.55112e-17
525 1 203.429 181.144 -5.55112e-17
526 1 78.1411 42.8015 -5.55112e-17
527 1 58.4581 123.655 -5.55112e-17
528 1 27.9891 11.6657 -5.55112e-17
529 1 122.261 5.58711 -5.55112e-17
530 1 114.33 28.1663 -5.55112e-17
531 1 210.377 209.718 -5.55112e-17
532 1 70.1144 8.80548 -5.55112e-17
533 1 191.229 141.556 -5.55112e-17
534 1 22.6308 205.313 -5.55112e-17
535 1 124.511 131.762 -5.55112e-17
536 1 197.173 94.7671 -5.55112e-17
537 1 131.162 87.3199 -5.55112e-17
538 1 162.968 200.961 -5.55112e-17
539 1 20.8127 196.005 -5.55112e-17
540 1 20.0648 146.958 -5.55112e-17
541 1 58.3964 6.62073 -5.55112e-17
542 1 102.063 72.7413 -5.55112e-17
543 1 197.061 134.369 -5.55112e-17
544 1 75.5857 142.782 -5.55112e-17
545 1 74.2424 97.4405 -5.55112e-17
546 1 186.047 181.081 -5.55112e-17
547 1 153.241 21.3773 -5.55112e-17
548 1 118.454 202.309 -5.55112e-17
549 1 86.962 160.278 -5.55112e-17
550 2 116.916 91.5524 -5.55112e-17
551 2 114.417 69.2371 -5.55112e-17
552 2 119.544 217.536 -5.55112e-17
553 1 31.06 144.716 -5.55112e-17
554 1 163.05 11.8091 -5.55112e-17
555 2 33.8751 95.486 -5.55112e-17
556 1 134.463 116.362 -5.55112e-17
557 1 183.788 218.775 -5.55112e-17
558 1 98.6281 34.9125 -5.55112e-17
559 1 143.743 69.8357 -5.55112e-17
560 1 69.5734 112.783 -5.55112e-17
561 1 213.856 145.393 -5.55112e-17
562 1 64.0866 81.3503 -5.55112e-17
563 2 116.671 143.328 -5.55112e-17
564 1 184.985 196.921 -5.55112e-17
565 1 117.133 173.171 -5.55112e-17
566 1 135.098 103.794 -5.55112e-17
567 1 133.873 152.39 -5.55112e-17
568 1 51.9704 145.615 -5.55112e-17
569 1 30.2502 190.502 -5.55112e-17
570 1 116.776 148.16 -5.55112e-17
571 1 30.6207 113.153 -5.55112e-17
572 1 101.536 164.483 -5.55112e-17
573 1 161.068 113.959 -5.55112e-17
574 1 141.959 87.0251 -5.55112e-17
575 1 140.292 196.498 -5.55112e-17
576 1 110.873 145.765 -5.55112e-17
577 1 163.254 66.3233 -5.55112e-17
578 1 4.40803 191.9 -5.55112e-17
579 1 121.936 136.358 -5.55112e-17
580 1 138.843 179.555 -5.55112e-17
581 1 150.917 214.278 -5.55112e-17
582 1 66.0363 189.816 -5.55112e-17
583 1 182.677 198.006 -5.55112e-17
584 2 68.5552 50.5362 -5.55112e-17
585 1 165.326 22.9988 -5.55112e-17
586 1 190.182 169.188 -5.55112e-17
587 1 41.8443 93.7616 -5.55112e-17
588 1 33.1417 172.836 -5.55112e-17
589 1 30.5841 70.0859 -5.55112e-17
590 1 157.659 200.299 -5.55112e-17
591 1 155.894 157.524 -5.55112e-17
592 1 197.114 127.6 -5.55112e-17
593 1 59.514 173.289 -5.55112e-17
594 1 185.274 31.3001 -5.55112e-17
595 1 178.838 188.871 -5.55112e-17
596 1 77.2915 66.0333 -5.55112e-17
597 2 27.8621 162.753 -5.55112e-17
598 1 11.1992 128.247 -5.55112e-17
599 1 17.2326 81.1044 -5.55112e-17
600 1 183.24 202.634 -5.55112e-17
601 1 30.7194 153.25 -5.55112e-17
602 1 178.224 209.047 -5.55112e-17
603 1 47.1431 145.344 -5.55112e-17
604 1 128.706 61.3258 -5.55112e-17
605 2 56.9683 75.0564 -5.55112e-17
606 1 127.409 139.509 -5.55112e-17
607 2 38.6153 216.878 -5.55112e-17
608 1 70.2827 76.3388 -5.55112e-17
609 1 128.281 118.937 -5.55112e-17
610 1 2.03409 191.167 -5.55112e-17
611 1 21.9759 148.532 -5.55112e-17
612 1 170.387 75.7889 -5.55112e-17
613 1 13.3998 159.611 -5.55112e-17
614 2 99.5361 42.4385 -5.55112e-17
615 1 99.481 147.582 -5.55112e-17
616 1 137.771 84.3421 -5.55112e-17
617 1 7.31743 65.6945 -5.55112e-17
618 1 174.185 206.948 -5.55112e-17
619 1 134.964 209.994 -5.55112e-17
620 1 76.6807 8.13211 -5.55112e-17
621 1 21.9963 171.805 -5.55112e-17
622 1 56.6717 18.5136 -5.55112e-17
623 1 46.7871 195.36 -5.55112e-17
624 1 147.92 136.844 -5.55112e-17
625 1 85.5935 212.238 -5.55112e-17
626 1 175.318 159.148 -5.55112e-17
627 1 11.6436 99.4078 -5.55112e-17
628 1 148.51 118.805 -5.55112e-17
629 1 144.187 78.9635 -5.55112e-17
630 2 69.5837 160.369 -5.55112e-17
631 1 86.1358 151.448 -5.55112e-17
632 1 212.845 45.2258 -5.55112e-17
633 1 135.053 40.7817 -5.55112e-17
634 1 149.677 27.143 -5.55112e-17
635 1 174.753 100.966 -5.55112e-17
636 1 76.7337 16.6148 -5.55112e-17
637 1 58.8616 143.805 -5.55112e-17
638 1 127.084 169.456 -5.55112e-17
639 2 39.4155 201.751 -5.55112e-17
640 1 175.326 80.8272 -5.55112e-17
641 1 218.99 96.0855 -5.55112e-17
642 1 136.23 162.03 -5.55112e-17
643 2 195.131 35.8329 -5.55112e-17
644 1 77.8712 74.7065 -5.55112e-17
645 1 127.852 91.439 -5.55112e-17
646 2 103.688 135.037 -5.55112e-17
647 1 4.35102 9.25885 -5.55112e-17
648 1 58.1833 38.4618 -5.55112e-17
649 2 99.2395 200.699 -5.55112e-17
650 1 39.3314 187.693 -5.55112e-17
651 1 173.432 87.3819 -5.55112e-17
652 1 179.365 186.442 -5.55112e-17
653 1 189.761 166.3 -5.55112e-17
654 1 145.166 130.509 -5.55112e-17
655 2 3.99952 166.351 -5.55112e-17
656 1 145.089 60.9017 -5.55112e-17
657 2 99.842 4.08664 -5.55112e-17
658 1 11.8559 130.579 -5.55112e-17
659 2 130.452 64.2494 -5.55112e-17
660 1 26.4092 144.619 -5.55112e-17
661 1 10.8351 78.2535 -5.55112e-17
662 1 17.9406 163.489 -5.55112e-17
663 1 65.8533 30.1344 -5.55112e-17
664 1 151.798 89.9629 -5.55112e-17
665 1 118.956 60.0311 -5.55112e-17
666 2 13.9512 215.91 -5.55112e-17
667 1 45.2347 162.156 -5.55112e-17
668 2 147.79 196.121 -5.55112e-17
669 1 90.2373 74.5828 -5.55112e-17
670 1 149.423 17.7466 -5.55112e-17
671 2 119.852 156.969 -5.55112e-17
672 1 32.4338 79.0517 -5.55112e-17
673 1 218.081 34.1255 -5.55112e-17
674 1 36.8141 96.0643 -5.55112e-17
675 1 111.164 86.0376 -5.55112e-17
676 1 198.585 5.48234 -5.55112e-17
677 1 136.413 190.889 -5.55112e-17
678 1 21.6319 126.101 -5.55112e-17
679 2 35.1056 24.6033 -5.55112e-17
680 1 218.265 109.544 -5.55112e-17
681 2 140.145 26.7141 -5.55112e-17
682 1 201.865 81.5642 -5.55112e-17
683 1 29.2533 32.3362 -5.55112e-17
684 1 92.2198 39.7528 -5.55112e-17
685 1 141.515 120.375 -5.55112e-17
686 1 98.598 137.721 -5.55112e-17
687 1 8.5803 175.312 -5.55112e-17
688 1 126.645 99.2471 -5.55112e-17
689 2 64.433 88.9815 -5.55112e-17
690 1 6.19161 53.0417 -5.55112e-17
691 1 30.8172 212.542 -5.55112e-17
692 1 130.353 84.9006 -5.55112e-17
693 1 116.64 50.5907 -5.55112e-17
694 1 152.41 198.299 -5.55112e-17
695 1 35.9689 165.794 -5.55112e-17
696 1 124.804 183.915 -5.55112e-17
697 1 123.1 10.0719 -5.55112e-17
698 1 96.98 193.951 -5.55112e-17
699 1 112.73 65.0539 -5.55112e-17
700 1 196.921 71.2001 -5.55112e-17
701 1 216.499 48.5472 -5.55112e-17
702 1 75.0579 216.113 -5.55112e-17
703 2 88.4943 189.96 -5.55112e-17
704 1 31.2027 214.976 -5.55112e-17
705 2 25.2199 23.4366 -5.55112e-17
706 1 113.008 107.062 -5.55112e-17
707 1 17.0587 108.038 -5.55112e-17
708 1 58.2431 180.134 -5.55112e-17
709 1 74.9475 112.747 -5.55112e-17
710 1 9.782 0.937882 -5.55112e-17
711 1 127.043 198.057 -5.55112e-17
712 1 162.581 196.73 -5.55112e-17
713 1 44.2553 78.0998 -5.55112e-17
714 1 177.073 114.678 -5.55112e-17
715 1 81.9509 145.359 -5.55112e-17
716 1 198.357 113.334 -5.55112e-17
717 1 139.825 208.589 -5.55112e-17
718 1 184.091 77.6469 -5.55112e-17
719 2 22.8144 131.96 -5.55112e-17
720 1 202.072 110.998 -5.55112e-17
721 1 150.985 117.442 -5.55112e-17
722 1 125.347 143.645 -5.55112e-17
723 2 152.201 192.897 -5.55112e-17
724 1 163.632 165.029 -5.55112e-17
725 1 210.284 163.616 -5.55112e-17
726 1 116.428 88.4683 -5.55112e-17
727 1 4.72372 131.331 -5.55112e-17
728 2 58.17 100.331 -5.55112e-17
729 1 92.1668 1.35997 -5.55112e-17
730 1 209.253 171.685 -5.55112e-17
731 1 210.425 176.724 -5.55112e-17
732 1 7.43531 80.6627 -5.55112e-17
733 1 205.037 87.1256 -5.55112e-17
734 1 199.804 160.076 -5.55112e-17
735 1 107.476 106.836 -5.55112e-17
736 2 169.486 25.5125 -5.55112e-17
737 1 148.452 155.143 -5.55112e-17
738 1 72.7882 187.226 -5.55112e-17
739 1 85.9845 115.231 -5.55112e-17
740 1 53.4187 127.852 -5.55112e-17
741 2 57.6215 131.629 -5.55112e-17
742 1 57.539 156.131 -5.55112e-17
743 1 27.3366 165.485 -5.55112e-17
744 2 124.168 204.661 -5.55112e-17
745 1 4.89654 47.8582 -5.55112e-17
746 1 32.0992 194.513 -5.55112e-17
747 2 67.3863 182.499 -5.55112e-17
748 1 129.273 99.3114 -5.55112e-17
749 1 55.4852 96.6226 -5.55112e-17
750 1 145.449 91.7351 -5.55112e-17
751 1 115.084 174.419 -5.55112e-17
752 1 185.413 185.063 -5.55112e-17
753 1 93.7584 200.21 -5.55112e-17
754 1 33.3139 83.5186 -5.55112e-17
755 1 205.181 198.291 -5.55112e-17
756 2 6.22259 136.482 -5.55112e-17
757 1 204.413 133.132 -5.55112e-17
758 1 158.601 28.0013 -5.55112e-17
759 1 41.3148 190.277 -5.55112e-17
760 1 163.256 0.273352 -5.55112e-17
761 1 62.8375 4.7283 -5.55112e-17
762 1 73.9 144.265 -5.55112e-17
763 1 83.4902 195.397 -5.55112e-17
764 2 13.7707 17.5162 -5.55112e-17
765 1 42.3415 70.0287 -5.55112e-17
766 1 17.1066 155.583 -5.55112e-17
767 1 192.3 45.3 -5.55112e-17
768 1 199.337 183.815 -5.55112e-17
769 1 77.4611 133.695 -5.55112e-17
770 2 35.9011 69.8906 -5.55112e-17
771 1 130.366 157.676 -5.55112e-17
772 1 124.075 159.095 -5.55112e-17
773 1 69.829 102.7 -5.55112e-17
774 1 215.191 43.0883 -5.55112e-17
775 1 41.9214 37.443 -5.55112e-17
776 1 14.4585 180.852 -5.55112e-17
777 1 150.313 55.7871 -5.55112e-17
778 1 142.468 208.209 -5.55112e-17
779 1 197.51 196.617 -5.55112e-17
780 1 41.761 187.914 -5.55112e-17
781 1 154.495 65.5247 -5.55112e-17
782 1 212.202 33.2324 -5.55112e-17
783 1 190.879 87.3594 -5.55112e-17
784 2 81.8673 98.3396 -5.55112e-17
785 1 14.6437 147.593 -5.55112e-17
786 1 39.3842 158.845 -5.55112e-17
787 1 184.929 150.521 -5.55112e-17
788 1 163.432 104.914 -5.55112e-17
789 2 36.1821 82.6397 -5.55112e-17
790 1 172.036 50.3548 -5.55112e-17
791 2 19.7044 106.451 -5.55112e-17
792 2 104.834 101.604 -5.55112e-17
793 2 132.498 34.1287 -5.55112e-17
794 1 159.593 47.2586 -5.55112e-17
795 1 3.2558 103.435 -5.55112e-17
796 1 100.5 100.187 -5.55112e-17
797 1 20.6418 162.239 -5.55112e-17
798 2 22.2126 135.421 -5.55112e-17
799 2 168.917 125.373 -5.55112e-17
800 2 216.75 124.084 -5.55112e-17
801 1 103.368 122.683 -5.55112e-17
802 1 26.1246 95.2658 -5.55112e-17
803 1 199.436 82.5475 -5.55112e-17
804 2 137.861 116.504 -5.55112e-17
805 1 151.665 150.614 -5.55112e-17
806 1 60.7982 199.239 -5.55112e-17
807 2 49.7282 66.7607 -5.55112e-17
808 1 145.483 55.3655 -5.55112e-17
809 2 10.5522 140.062 -5.55112e-17
810 1 20.2626 2.90475 -5.55112e-17
811 1 161.727 202.921 -5.55112e-17
812 1 206.053 53.7904 -5.55112e-17
813 2 37.6236 163.187 -5.55112e-17
814 1 67.408 119.843 -5.55112e-17
815 1 89.8341 67.7277 -5.55112e-17
816 1 177.322 130.157 -5.55112e-17
817 1 51.7328 187.302 -5.55112e-17
818 1 64.0314 0.295205 -5.55112e-17
819 1 179.479 137.016 -5.55112e-17
820 1 149.321 8.42437 -5.55112e-17
821 1 40.9771 131.336 -5.55112e-17
822 2 18.9329 157.948 -5.55112e-17
823 2 91.6179 195.778 -5.55112e-17
824 1 21.9179 140.471 -5.55112e-17
825 1 77.8561 24.8175 -5.55112e-17
826 1 112.288 200.622 -5.55112e-17
827 1 25.3151 204.084 -5.55112e-17
828 1 167.048 184.394 -5.55112e-17
829 1 104.016 187.326 -5.55112e-17
830 1 102.256 46.5221 -5.55112e-17
831 1 82.8896 136.411 -5.55112e-17
832 1 85.6686 46.3793 -5.55112e-17
833 1 196.335 52.7781 -5.55112e-17
834 1 115.438 179.26 -5.55112e-17
835 1 48.321 190.393 -5.55112e-17
836 1 10.2627 21.6987 -5.55112e-17
837 1 66.6593 170.228 -5.55112e-17
838 1 209.469 123.322 -5.55112e-17
839 2 49.0103 5.46788 -5.55112e-17
840 1 182.144 141.251 -5.55112e-17
841 2 97.5979 60.342 -5.55112e-17
842 1 16.9304 25.6313 -5.55112e-17
843 2 116.408 195.099 -5.55112e-17
844 1 43.1021 151.545 -5.55112e-17
845 1 209.181 190.455 -5.55112e-17
846 1 191.672 71.8235 -5.55112e-17
847 1 67.8774 23.2983 -5.55112e-17
848 1 191.515 164.468 -5.55112e-17
849 1 149.057 218.261 -5.55112e-17
850 1 195.152 30.3236 -5.55112e-17
851 1 215.924 191.774 -5.55112e-17
852 1 17.8943 133.425 -5.55112e-17
853 1 90.2401 95.7955 -5.55112e-17
854 1 11.8287 200.232 -5.55112e-17
855 1 206.594 26.8288 -5.55112e-17
856 1 179.657 52.8198 -5.55112e-17