ITEM: TIMESTEP
0
ITEM: NUMBER OF ATOMS
7200
ITEM: BOX BOUNDS xy xz yz pp pp pp
0.0000000000000000e+00 2.1900000000000000e+02 0.0000000000000000e+00
0.0000000000000000e+00 2.1900000000000000e+02 0.0000000000000000e+00
-3.6499999999999999e-01 3.6499999999999999e-01 0.0000000000000000e+00
ITEM: ATOMS id type x y z
1 1 13.6441 147.682 -5.55112e-17
2 1 8.94297 185.755 -5.55112e-17
3 1 180.122 189.987 -5.55112e-17
4 1 200.329 143.518 -5.55112e-17
5 1 116.596 93.4933 -5.55112e-17
6 1 68.9168 115.496 -5.55112e-17
7 1 118.475 23.1154 -5.55112e-17
8 2 76.9676 209.995 -5.55112e-17
9 1 190.102 54.9489 -5.55112e-17
10 2 160.001 157.568 -5.55112e-17
11 1 39.7677 52.7989 -5.55112e-17
12 1 154.815 114.398 -5.55112e-17
13 2 9.36544 74.3282 -5.55112e-17
14 1 16.909 47.3279 -5.55112e-17
15 1 37.0064 61.6139 -5.55112e-17
16 2 132.736 191.662 -5.55112e-17
17 1 116.898 138.253 -5.55112e-17
18 2 138.661 192.693 -5.55112e-17
19 1 151.724 146.992 -5.55112e-17
20 1 29.4372 100.461 -5.55112e-17
21 1 13.2649 140.477 -5.55112e-17
22 2 28.8088 91.4086 -5.55112e-17
23 2 72.0213 211.256 -5.55112e-17
24 1 90.7261 58.7272 -5.55112e-17
25 1 28.7213 62.0396 -5.55112e-17
26 2 217.931 204.323 -5.55112e-17
27 1 114.531 88.8968 -5.55112e-17
28 2 131.063 77.4285 -5.55112e-17
29 1 134.484 35.3717 -5.55112e-17
30 1 171.698 4.73177 -5.55112e-17
31 1 113.476 1.90364 -5.55112e-17
32 1 132.045 205.526 -5.55112e-17
33 1 213.836 183.262 -5.55112e-17
34 1 127.568 116.274 -5.55112e-17
35 1 143.958 3.9283 -5.55112e-17
36 1 168.422 53.8588 -5.55112e-17
37 2 35.4823 119.993 -5.55112e-17
38 1 66.0175 18.1746 -5.55112e-17
39 1 9.57029 153.27 -5.55112e-17
40 1 149.189 146.993 -5.55112e-17
41 1 3.85211 85.8201 -5.55112e-17
42 1 36.562 24.7949 -5.55112e-17
43 1 201.035 50.7351 -5.55112e-17
44 1 117.842 135.496 -5.55112e-17
45 1 112.992 118.68 -5.55112e-17
46 1 177.327 121.502 -5.55112e-17
47 1 43.8628 74.1152 -5.55112e-17
48 2 65.7392 206.153 -5.55112e-17
49 1 118.637 178.965 -5.55112e-17
50 1 137.799 104.641 -5.55112e-17
51 1 103.57 38.7627 -5.55112e-17
52 1 71.8717 55.1146 -5.55112e-17
53 1 130.019 166.842 -5.55112e-17
54 1 69.073 80.8781 -5.55112e-17
55 1 84.4965 8.08668 -5.55112e-17
56 1 96.0502 93.1016 -5.55112e-17
57 2 25.87 121.127 -5.55112e-17
58 1 104.905 152.345 -5.55112e-17
59 1 156.228 10.3317 -5.55112e-17
60 2 83.0288 194.159 -5.55112e-17
61 2 139.787 205.112 -5.55112e-17
62 1 11.8141 110.946 -5.55112e-17
63 1 136.902 213.138 -5.55112e-17
64 1 158.146 54.0804 -5.55112e-17
65 1 209.533 37.6408 -5.55112e-17
66 1 161.796 57.7774 -5.55112e-17
67 1 216.602 120.497 -5.55112e-17
68 1 201.612 21.7826 -5.55112e-17
69 1 10.2577 0.331855 -5.55112e-17
70 1 218.26 64.7352 -5.55112e-17
71 1 37.5694 208.737 -5.55112e-17
72 1 204.382 67.374 -5.55112e-17
73 1 90.0424 133.386 -5.55112e-17
74 1 43.7793 69.0424 -5.55112e-17
75 2 149.619 79.0035 -5.55112e-17
76 1 154.951 29.6311 -5.55112e-17
77 1 177.965 206.867 -5.55112e-17
78 1 187.734 79.3108 -5.55112e-17
79 2 95.6785 69.4679 -5.55112e-17
80 1 74.9757 60.0009 -5.55112e-17
81 1 74.092 122.361 -5.55112e-17
82 1 12.9859 169.432 -5.55112e-17
83 2 60.7085 46.3136 -5.55112e-17
84 1 29.7676 22.5746 -5.55112e-17
85 1 166.25 116.374 -5.55112e-17
86 1 167.823 96.1659 -5.55112e-17
87 1 204.473 43.1046 -5.55112e-17
88 1 59.3257 97.6542 -5.55112e-17
89 2 117.883 106.524 -5.55112e-17
90 2 8.23968 66.1671 -5.55112e-17
91 1 135.58 209.391 -5.55112e-17
92 2 169.817 27.4264 -5.55112e-17
93 1 36.7143 63.7301 -5.55112e-17
94 2 131.861 202.654 -5.55112e-17
95 1 211.216 5.87757 -5.55112e-17
96 1 138.266 86.0582 -5.55112e-17
97 1 142.393 34.999 -5.55112e-17
98 1 128.368 141.309 -5.55112e-17
99 1 16.3186 214.167 -5.55112e-17
100 1 165.323 20.7458 -5.55112e-17
101 1 157.409 187.451 -5.55112e-17
102 1 211.231 71.2312 -5.55112e-17
103 1 70.7437 12.8259 -5.55112e-17
104 1 148.524 111.859 -5.55112e-17
105 1 58.6576 30.8065 -5.55112e-17
106 1 107.539 153.006 -5.55112e-17
107 2 199.47 70.5617 -5.55112e-17
108 1 114.725 67.8945 -5.55112e-17
109 1 61.9033 54.0492 -5.55112e-17
110 1 101.218 39.5962 -5.55112e-17
111 1 94.7337 2.31159 -5.55112e-17
112 1 168.181 80.3663 -5.55112e-17
113 1 206.577 90.6654 -5.55112e-17
114 1 98.144 5.34168 -5.55112e-17
115 1 114.392 16.4107 -5.55112e-17
116 2 66.378 217.129 -5.55112e-17
117 1 76.1535 72.1237 -5.55112e-17
118 1 90.608 191.888 -5.55112e-17
119 2 196.805 36.8082 -5.55112e-17
120 1 103.599 218.368 -5.55112e-17
121 1 132.439 152.209 -5.55112e-17
122 1 157.76 211.561 -5.55112e-17
123 1 148.164 205.351 -5.55112e-17
124 1 93.3738 86.149 -5.55112e-17
125 1 10.1388 23.0772 -5.55112e-17
126 1 76.1934 79.4565 -5.55112e-17
127 1 81.3262 57.0991 -5.55112e-17
128 1 82.7294 40.6613 -5.55112e-17
129 1 185.235 217.718 -5.55112e-17
130 1 126.54 10.1547 -5.55112e-17
131 1 45.7689 67.3128 -5.55112e-17
132 2 173.376 209.553 -5.55112e-17
133 1 115.351 203.545 -5.55112e-17
134 1 195.334 156.869 -5.55112e-17
135 1 87.1463 100.306 -5.55112e-17
136 1 157.101 131.673 -5.55112e-17
137 1 46.1437 178.884 -5.55112e-17
138 1 133.909 154.015 -5.55112e-17
139 1 218.987 126.916 -5.55112e-17
140 2 161.585 117.96 -5.55112e-17
141 1 123.924 95.1366 -5.55112e-17
142 2 67.0829 117.948 -5.55112e-17
143 1 90.8862 184.702 -5.55112e-17
144 2 85.8702 80.9599 -5.55112e-17
145 1 90.7492 203.517 -5.55112e-17
146 1 202.385 35.7927 -5.55112e-17
147 1 129.476 0.00830648 -5.55112e-17
148 1 46.3611 59.0659 -5.55112e-17
149 1 154.782 77.6612 -5.55112e-17
150 1 14.5025 195.117 -5.55112e-17
151 1 138.868 62.6493 -5.55112e-17
152 1 35.7207 177.413 -5.55112e-17
153 2 205.04 115.729 -5.55112e-17
154 1 181.811 160.302 -5.55112e-17
155 1 179.783 55.7166 -5.55112e-17
156 2 168.316 9.31266 -5.55112e-17
157 1 186.838 171.665 -5.55112e-17
158 1 89.2199 182.846 -5.55112e-17
159 1 42.7615 76.6872 -5.55112e-17
160 1 152.198 150.867 -5.55112e-17
161 1 217.544 107.241 -5.55112e-17
162 1 157.434 114.781 -5.55112e-17
163 1 209.667 10.4614 -5.55112e-17
164 1 142.583 195.55 -5.55112e-17
165 1 171.305 151.26 -5.55112e-17
166 2 45.4687 194.639 -5.55112e-17
167 1 114.912 145.056 -5.55112e-17
168 1 182.737 39.5869 -5.55112e-17
169 1 211.41 207.888 -5.55112e-17
170 1 188.438 178.307 -5.55112e-17
171 1 53.5553 163.935 -5.55112e-17
172 1 126.944 88.9409 -5.55112e-17
173 1 20.8562 145.419 -5.55112e-17
174 1 53.0448 187.361 -5.55112e-17
175 2 214.202 7.96832 -5.55112e-17
176 1 195.885 85.4705 -5.55112e-17
177 2 42.84 105.571 -5.55112e-17
178 1 13.8664 13.5149 -5.55112e-17
179 1 168.091 112.29 -5.55112e-17
180 1 29.8806 81.7434 -5.55112e-17
181 1 121.076 34.928 -5.55112e-17
182 2 93.3464 194.102 -5.55112e-17
183 1 190.298 134.243 -5.55112e-17
184 1 31.4531 217.284 -5.55112e-17
185 2 115.19 21.6621 -5.55112e-17
186 2 205.328 64.6571 -5.55112e-17
187 1 199.125 48.9092 -5.55112e-17
188 1 132.137 0.488932 -5.55112e-17
189 1 143.981 136.772 -5.55112e-17
190 2 87.321 218.461 -5.55112e-17
191 1 142.513 53.4294 -5.55112e-17
192 2 126.989 119.421 -5.55112e-17
193 2 102.191 121.375 -5.55112e-17
194 1 61.0011 113.306 -5.55112e-17
195 1 170.339 32.3703 -5.55112e-17
196 1 39.552 139.425 -5.55112e-17
197 1 167.716 84.4987 -5.55112e-17
198 2 32.6028 171.167 -5.55112e-17
199 1 142.755 40.0089 -5.55112e-17
200 1 206.806 176.039 -5.55112e-17
201 2 141.819 200.695 -5.55112e-17
202 1 141.982 57.9236 -5.55112e-17
203 1 25.9432 66.5746 -5.55112e-17
204 1 87.1488 137.183 -5.55112e-17
205 2 201.52 189.597 -5.55112e-17
206 1 8.049 151.071 -5.55112e-17
207 1 154.548 155.17 -5.55112e-17
208 1 70.7513 113.24 -5.55112e-17
209 1 58.8594 85.1643 -5.55112e-17
210 1 208.53 88.9059 -5.55112e-17
211 2 200.916 186.711 -5.55112e-17
212 1 98.1787 133.187 -5.55112e-17
213 1 114.709 28.6773 -5.55112e-17
214 1 199.181 138.534 -5.55112e-17
215 1 85.8864 146.971 -5.55112e-17
216 1 41.9792 72.43 -5.55112e-17
217 1 73.3532 13.1643 -5.55112e-17
218 2 144.512 192.851 -5.55112e-17
219 1 113.692 93.3895 -5.55112e-17
220 2 63.0796 22.0267 -5.55112e-17
221 1 187.058 95.8492 -5.55112e-17
222 1 165.284 158.678 -5.55112e-17
223 1 203.203 24.1578 -5.55112e-17
224 2 134.026 111.599 -5.55112e-17
225 1 198.556 8.51964 -5.55112e-17
226 1 117.229 45.7805 -5.55112e-17
227 2 99.5962 109.236 -5.55112e-17
228 1 10.3573 29.8788 -5.55112e-17
229 1 216.867 145.23 -5.55112e-17
230 1 190.105 211.081 -5.55112e-17
231 1 89.7159 49.3907 -5.55112e-17
232 1 12.4403 24.278 -5.55112e-17
233 1 137.873 140.447 -5.55112e-17
234 1 16.4247 59.7842 -5.55112e-17
235 1 175.441 91.1621 -5.55112e-17
236 1 195.658 180.65 -5.55112e-17
237 1 23.2945 177.637 -5.55112e-17
238 1 114.703 0.00185684 -5.55112e-17
239 2 68.367 42.6515 -5.55112e-17
240 1 102.45 151.785 -5.55112e-17
241 2 74.5869 163.636 -5.55112e-17
242 2 174.991 175.172 -5.55112e-17
243 2 82.8816 204.3 -5.55112e-17
244 1 54.7339 7.21385 -5.55112e-17
245 1 210.626 194.489 -5.55112e-17
246 1 180.494 92.2512 -5.55112e-17
247 1 194.125 124.054 -5.55112e-17
248 1 10.9008 197.47 -5.55112e-17
249 1 162.595 164.999 -5.55112e-17
250 2 218.932 207.895 -5.55112e-17
251 1 79.499 143.472 -5.55112e-17
252 1 177.973 78.5385 -5.55112e-17
253 1 176.231 208.637 -5.55112e-17
254 2 137.753 197.705 -5.55112e-17
255 1 152.781 186.735 -5.55112e-17
256 1 201.849 93.2958 -5.55112e-17
257 1 200.87 13.1934 -5.55112e-17
258 2 132.112 29.54 -5.55112e-17
259 1 74.8303 9.53055 -5.55112e-17
260 1 92.6075 199.065 -5.55112e-17
261 1 203.416 31.732 -5.55112e-17
262 1 150.812 21.2281 -5.55112e-17
263 1 29.7321 94.7383 -5.55112e-17
264 1 92.1487 22.422 -5.55112e-17
265 1 172.49 50.4136 -5.55112e-17
266 1 180.997 158.105 -5.55112e-17
267 1 162.499 101.141 -5.55112e-17
268 1 90.62 78.8166 -5.55112e-17
269 1 118.227 6.88555 -5.55112e-17
270 1 111.359 148.865 -5.55112e-17
271 1 109.235 28.7645 -5.55112e-17
272 1 189.433 215.551 -5.55112e-17
273 1 210.227 25.8657 -5.55112e-17
274 2 148.752 103.628 -5.55112e-17
275 1 104.695 21.1295 -5.55112e-17
276 2 50.0319 191.574 -5.55112e-17
277 2 114.194 149.599 -5.55112e-17
278 1 146.194 36.587 -5.55112e-17
279 2 197.186 216.641 -5.55112e-17
280 1 160.776 80.9496 -5.55112e-17
281 1 50.5338 119.271 -5.55112e-17
282 1 204.188 146.742 -5.55112e-17
283 1 168.605 30.0314 -5.55112e-17
284 1 212.273 42.2326 -5.55112e-17
285 1 178.638 204.29 -5.55112e-17
286 2 67.1343 78.7609 -5.55112e-17
287 1 7.58736 29.1819 -5.55112e-17
288 1 218.198 181.831 -5.55112e-17
289 1 17.6075 183.205 -5.55112e-17
290 1 142.311 73.581 -5.55112e-17
291 1 181.743 122.714 -5.55112e-17
292 2 151.22 111.481 -5.55112e-17
293 2 209.089 77.6147 -5.55112e-17
294 1 47.8801 210.813 -5.55112e-17
295 1 132.346 183.156 -5.55112e-17
296 1 169.112 98.7093 -5.55112e-17
297 1 19.9101 157.605 -5.55112e-17
298 1 75.4615 157.606 -5.55112e-17
299 1 23.2808 52.315 -5.55112e-17
300 2 160.094 200.416 -5.55112e-17
301 1 83.2642 2.89799 -5.55112e-17
302 1 158.363 102.73 -5.55112e-17
303 2 95.7788 45.3873 -5.55112e-17
304 2 185.018 55.0872 -5.55112e-17
305 1 32.6272 95.9834 -5.55112e-17
306 1 189.201 100.606 -5.55112e-17
307 1 147.65 188.504 -5.55112e-17
308 1 31.7431 111.397 -5.55112e-17
309 2 217.572 92.0932 -5.55112e-17
310 1 199.691 126.991 -5.55112e-17
311 1 175.581 136.311 -5.55112e-17
312 1 42.5946 24.7714 -5.55112e-17
313 2 195.87 30.613 -5.55112e-17
314 1 142.319 213.069 -5.55112e-17
315 1 0.191799 144.422 -5.55112e-17
316 1 9.48667 93.5611 -5.55112e-17
317 1 49.7653 181.554 -5.55112e-17
318 1 51.6305 75.1568 -5.55112e-17
319 1 146.908 214.611 -5.55112e-17
320 1 102.482 90.3779 -5.55112e-17
321 1 200.741 95.594 -5.55112e-17
322 1 199.737 212.666 -5.55112e-17
323 1 197.123 66.1224 -5.55112e-17
324 1 57.6227 129.758 -5.55112e-17
325 1 21.2667 34.9856 -5.55112e-17
326 1 144.911 144.212 -5.55112e-17
327 2 162.631 38.7404 -5.55112e-17
328 1 186.83 62.2785 -5.55112e-17
329 2 69.0636 45.7091 -5.55112e-17
330 1 16.3043 202.311 -5.55112e-17
331 1 20.2823 30.1966 -5.55112e-17
332 2 169.001 149.578 -5.55112e-17
333 1 131.402 137.109 -5.55112e-17
334 1 28.2614 34.0972 -5.55112e-17
335 1 73.3326 95.5723 -5.55112e-17
336 1 61.0111 86.5331 -5.55112e-17
337 1 44.2148 118.285 -5.55112e-17
338 1 21.9471 17.8643 -5.55112e-17
339 1 163.206 67.1945 -5.55112e-17
340 1 188.863 74.1231 -5.55112e-17
341 1 157.334 162.214 -5.55112e-17
342 1 198.036 168.509 -5.55112e-17
343 1 8.98733 162.598 -5.55112e-17
344 1 131.597 94.4642 -5.55112e-17
345 1 22.9777 163.597 -5.55112e-17
346 1 144.239 24.7573 -5.55112e-17
347 1 155.868 31.9826 -5.55112e-17
348 1 65.667 87.5059 -5.55112e-17
349 1 144.416 127.685 -5.55112e-17
350 2 54.3385 133.472 -5.55112e-17
351 1 62.4976 73.5229 -5.55112e-17
352 1 183.114 45.0669 -5.55112e-17
353 1 96.2159 165.552 -5.55112e-17
354 1 99.1809 54.6394 -5.55112e-17
355 1 59.8376 33.1063 -5.55112e-17
356 1 85.6141 88.5756 -5.55112e-17
357 1 209.52 17.8397 -5.55112e-17
358 1 127.975 97.59 -5.55112e-17
359 1 165.954 67.8132 -5.55112e-17
360 1 206.292 130.797 -5.55112e-17
361 1 167.969 72.8163 -5.55112e-17
362 1 75.171 104.782 -5.55112e-17
363 1 3.12479 38.6083 -5.55112e-17
364 2 15.2229 171.733 -5.55112e-17
365 1 204.088 38.4085 -5.55112e-17
366 1 169.446 63.6646 -5.55112e-17
367 1 59.1951 92.8621 -5.55112e-17
368 1 73.1807 50.5028 -5.55112e-17
369 2 144.53 154.788 -5.55112e-17
370 1 83.9397 170.636 -5.55112e-17
371 1 85.6807 51.5611 -5.55112e-17
372 2 118.088 208.34 -5.55112e-17
373 2 70.4186 57.3582 -5.55112e-17
374 1 164.751 65.3612 -5.55112e-17
375 1 112.958 162.011 -5.55112e-17
376 1 36.9735 56.9765 -5.55112e-17
377 1 63.1357 58.6271 -5.55112e-17
378 1 165.533 142.94 -5.55112e-17
379 1 74.3895 184.318 -5.55112e-17
380 1 14.3448 134.938 -5.55112e-17
381 1 68.2441 168.119 -5.55112e-17
382 1 124.256 174.002 -5.55112e-17
383 1 138.995 217.88 -5.55112e-17
384 1 55.2167 145.181 -5.55112e-17
385 1 187.731 71.8538 -5.55112e-17
386 2 74.1264 199.302 -5.55112e-17
387 1 214.198 23.7516 -5.55112e-17
388 1 146.053 91.0335 -5.55112e-17
389 1 12.8277 189.489 -5.55112e-17
390 2 33.0316 128.545 -5.55112e-17
391 2 176.397 67.521 -5.55112e-17
392 1 127.755 134.28 -5.55112e-17
393 1 169.184 152.558 -5.55112e-17
394 1 172.368 26.059 -5.55112e-17
395 1 93.7886 163.939 -5.55112e-17
396 1 214.501 37.3245 -5.55112e-17
397 1 49.601 141.018 -5.55112e-17
398 1 122.349 109.498 -5.55112e-17
399 1 7.0092 146.891 -5.55112e-17
400 1 208.817 8.10332 -5.55112e-17
401 1 12.1732 130.702 -5.55112e-17
402 2 154.098 11.9316 -5.55112e-17
403 1 38.341 188.115 -5.55112e-17
404 1 11.6428 155.321 -5.55112e-17
405 1 6.04371 11.75 -5.55112e-17
406 1 151.549 179.687 -5.55112e-17
407 2 44.3323 181.373 -5.55112e-17
408 1 79.8038 55.0136 -5.55112e-17
409 1 203.98 107.919 -5.55112e-17
410 1 75.437 1.62024 -5.55112e-17
411 1 111.718 78.0341 -5.55112e-17
412 1 71.7608 197.662 -5.55112e-17
413 1 56.0681 159.357 -5.55112e-17
414 1 177.145 173.189 -5.55112e-17
415 1 193.787 105.717 -5.55112e-17
416 1 71.5295 86.9433 -5.55112e-17
417 1 124.36 160.642 -5.55112e-17
418 2 179.874 171.163 -5.55112e-17
419 1 14.5328 114.435 -5.55112e-17
420 2 80.4937 59.8331 -5.55112e-17
421 1 167.558 133.324 -5.55112e-17
422 1 0.367171 160.398 -5.55112e-17
423 2 83.5367 35.5541 -5.55112e-17
424 1 111.4 85.9027 -5.55112e-17
425 1 46.5616 122.641 -5.55112e-17
426 1 117.089 114.633 -5.55112e-17
427 1 203.894 135.077 -5.55112e-17
428 1 160.368 211.247 -5.55112e-17
429 1 208.673 23.8841 -5.55112e-17
430 1 3.49252 137.375 -5.55112e-17
431 1 128.452 150.813 -5.55112e-17
432 1 152.996 218.84 -5.55112e-17
433 1 83.9314 161.89 -5.55112e-17
434 1 44.0894 71.4121 -5.55112e-17
435 1 25.9753 147.751 -5.55112e-17
436 1 5.28089 171.103 -5.55112e-17
437 1 6.436 199.594 -5.55112e-17
438 2 91.676 61.486 -5.55112e-17
439 1 123.13 140.936 -5.55112e-17
440 1 9.78464 160.1 -5.55112e-17
441 1 3.79858 165.011 -5.55112e-17
442 1 190.958 179.971 -5.55112e-17
443 1 184.994 1.14741 -5.55112e-17
444 1 63.8752 93.268 -5.55112e-17
445 1 0.637835 179.181 -5.55112e-17
446 1 68.3579 204.683 -5.55112e-17
447 1 4.34286 96.5448 -5.55112e-17
448 1 28.0857 188.792 -5.55112e-17
449 1 108.096 45.8526 -5.55112e-17
450 1 20.8227 111.779 -5.55112e-17
451 1 165.266 198.55 -5.55112e-17
452 1 179.552 216.926 -5.55112e-17
453 1 66.8582 208.394 -5.55112e-17
454 1 112.798 73.4154 -5.55112e-17
455 1 145.218 175.594 -5.55112e-17
456 1 109.666 87.3817 -5.55112e-17
457 1 42.0602 124.312 -5.55112e-17
458 1 60.9141 115.799 -5.55112e-17
459 1 27.2334 93.7418 -5.55112e-17
460 1 134.644 10.0824 -5.55112e-17
461 1 64.565 137.237 -5.55112e-17
462 1 42.8385 66.8794 -5.55112e-17
463 1 95.6772 129.479 -5.55112e-17
464 1 33.184 187.35 -5.55112e-17
465 1 25.4659 157.639 -5.55112e-17
466 1 160.046 115.169 -5.55112e-17
467 1 72.8781 175.905 -5.55112e-17
468 1 175.817 157.193 -5.55112e-17
469 1 122.858 51.3183 -5.55112e-17
470 1 189.176 1.50592 -5.55112e-17
471 1 192.83 156.09 -5.55112e-17
472 1 124.506 48.9883 -5.55112e-17
473 1 83.8154 154.689 -5.55112e-17
474 1 186.402 124.855 -5.55112e-17
475 1 102.405 210.914 -5.55112e-17
476 2 145.878 81.2024 -5.55112e-17
477 1 105.387 193.126 -5.55112e-17
478 1 202.955 45.7758 -5.55112e-17
479 1 124.592 17.1098 -5.55112e-17
480 1 103.944 147.4 -5.55112e-17
481 1 57.1041 173.539 -5.55112e-17
482 1 120.666 0.575984 -5.55112e-17
483 1 105.205 113.984 -5.55112e-17
484 2 171.677 154.154 -5.55112e-17
485 1 7.8954 13.5026 -5.55112e-17
486 1 205.02 180.515 -5.55112e-17
487 1 59.5861 132.857 -5.55112e-17
488 1 118.291 62.0954 -5.55112e-17
489 1 80.101 64.8886 -5.55112e-17
490 1 211.559 160.11 -5.55112e-17
491 1 92.1449 141.66 -5.55112e-17
492 1 88.7725 72.7369 -5.55112e-17
493 1 194.242 171.119 -5.55112e-17
494 1 37.1409 39.9393 -5.55112e-17
495 1 73.6776 131.96 -5.55112e-17
496 2 210.965 150.095 -5.55112e-17
497 1 172.875 59.433 -5.55112e-17
498 1 102.476 32.3465 -5.55112e-17
499 2 40.4045 200.817 -5.55112e-17
500 1 30.6402 169.025 -5.55112e-17
501 2 14.6145 26.1979 -5.55112e-17
502 2 89.0963 108.293 -5.55112e-17
503 1 189.208 37.4937 -5.55112e-17
504 1 2.22755 79.0912 -5.55112e-17
505 1 169.981 66.1112 -5.55112e-17
506 1 195.836 22.9025 -5.55112e-17
507 1 120.229 146.062 -5.55112e-17
508 1 177.246 108.948 -5.55112e-17
509 2 29.9989 103.397 -5.55112e-17
510 2 125.551 51.8711 -5.55112e-17
511 1 174.458 0.427473 -5.55112e-17
512 2 4.9944 17.2779 -5.55112e-17
513 1 81.769 182.548 -5.55112e-17
514 1 37.0513 19.3746 -5.55112e-17
515 1 117.672 172.081 -5.55112e-17
516 1 209.361 28.3313 -5.55112e-17
517 1 62.9126 106.59 -5.55112e-17
518 2 75.5429 76.8476 -5.55112e-17
519 1 52.4271 193.921 -5.55112e-17
520 2 106.52 185.772 -5.55112e-17
521 1 76.2268 37.4362 -5.55112e-17
522 1 173.436 116.196 -5.55112e-17
523 1 156.467 49.2358 -5.55112e-17
524 1 108.522 84.9116 -5.55112e-17
525 1 86.4953 114.762 -5.55112e-17
526 1 91.5151 162.881 -5.55112e-17
527 1 179.22 101.539 -5.55112e-17
528 1 3.2263 187.494 -5.55112e-17
529 1 109.886 115.094 -5.55112e-17
530 1 194.028 200.253 -5.55112e-17
531 1 61.3892 154.393 -5.55112e-17
532 1 198.59 31.7586 -5.55112e-17
533 1 95.3415 191.662 -5.55112e-17
534 1 87.1629 49.3933 -5.55112e-17
535 1 77.0236 212.82 -5.55112e-17
536 1 108.396 91.6678 -5.55112e-17
537 1 101.128 52.8209 -5.55112e-17
538 1 19.1593 59.1673 -5.55112e-17
539 1 143.779 8.69958 -5.55112e-17
540 1 152.61 143.975 -5.55112e-17
541 1 97.7143 190.999 -5.55112e-17
542 1 47.8357 52.5823 -5.55112e-17
543 1 185.568 156.752 -5.55112e-17
544 1 209.876 66.0043 -5.55112e-17
545 1 11.7484 19.0302 -5.55112e-17
546 1 208.206 104.169 -5.55112e-17
547 1 133.158 37.4016 -5.55112e-17
548 1 85.3274 17.8064 -5.55112e-17
549 1 140.457 81.8689 -5.55112e-17
550 2 20.0873 180.976 -5.55112e-17
551 2 96.0845 218.695 -5.55112e-17
552 2 171.815 217.281 -5.55112e-17
553 1 114.724 95.8798 -5.55112e-17
554 1 42.6998 187.568 -5.55112e-17
555 2 4.01391 174.244 -5.55112e-17
556 1 138.014 75.8857 -5.55112e-17
557 1 138.648 8.21292 -5.55112e-17
558 1 82.1144 144.267 -5.55112e-17
559 1 6.21406 33.8063 -5.55112e-17
560 1 214.174 169.339 -5.55112e-17
561 1 147.798 182.945 -5.55112e-17
562 1 100.882 50.0142 -5.55112e-17
563 2 38.4543 2.74396 -5.55112e-17
564 1 109.142 151 -5.55112e-17
565 1 35.5815 186.557 -5.55112e-17
566 1 173.465 188.591 -5.55112e-17
567 1 133.052 7.6587 -5.55112e-17
568 1 41.3103 129.751 -5.55112e-17
569 1 17.9068 104.99 -5.55112e-17
570 1 169.269 136.049 -5.55112e-17
571 1 155.711 141.346 -5.55112e-17
572 1 118.111 91.4978 -5.55112e-17
573 1 175.216 103.746 -5.55112e-17
574 1 4.0187 211.562 -5.55112e-17
575 1 166.388 186.716 -5.55112e-17
576 1 218.569 67.298 -5.55112e-17
577 1 8.34526 158.17 -5.55112e-17
578 1 144.561 34.8698 -5.55112e-17
579 1 181.435 46.8765 -5.55112e-17
580 1 106.831 210.158 -5.55112e-17
581 1 211.331 199.84 -5.55112e-17
582 1 106.453 47.9876 -5.55112e-17
583 1 109.987 59.7723 -5.55112e-17
584 2 75.9481 19.7262 -5.55112e-17
585 1 167.743 209.65 -5.55112e-17
586 1 10.7999 32.8674 -5.55112e-17
587 1 41.1922 1.53338 -5.55112e-17
588 1 218.072 140.022 -5.55112e-17
589 1 167.724 184.776 -5.55112e-17
590 1 153.084 5.36266 -5.55112e-17
591 1 130.037 153.065 -5.55112e-17
592 1 195.666 176.173 -5.55112e-17
593 1 150.774 31.4084 -5.55112e-17
594 1 139.809 41.7259 -5.55112e-17
595 1 143.637 46.7021 -5.55112e-17
596 1 10.0832 64.2104 -5.55112e-17
597 2 55.8116 104.14 -5.55112e-17
598 1 68.3926 16.8227 -5.55112e-17
599 1 166.423 110.383 -5.55112e-17
600 1 197.675 211.454 -5.55112e-17
601 1 36.1332 4.57252 -5.55112e-17
602 1 41.7902 100.797 -5.55112e-17
603 1 183.871 100.308 -5.55112e-17
604 1 8.63457 43.1045 -5.55112e-17
605 2 196.053 131.611 -5.55112e-17
606 1 65.7569 176.216 -5.55112e-17
607 2 44.4928 203.123 -5.55112e-17
608 1 51.851 60.2992 -5.55112e-17
609 1 0.49837 100.071 -5.55112e-17
610 1 30.8255 194.186 -5.55112e-17
611 1 189.493 46.6127 -5.55112e-17
612 1 111.322 180.431 -5.55112e-17
613 1 112.599 6.38465 -5.55112e-17
614 2 125.968 35.0384 -5.55112e-17
615 1 140.989 115.557 -5.55112e-17
616 1 60.6392 170.086 -5.55112e-17
617 1 64.8287 36.7189 -5.55112e-17
618 1 194.965 197.908 -5.55112e-17
619 1 96.2996 59.1804 -5.55112e-17
620 1 12.1136 113.545 -5.55112e-17
621 1 188.661 213.275 -5.55112e-17
622 1 79.822 99.4159 -5.55112e-17
623 1 73.5278 78.9732 -5.55112e-17
624 1 185.777 209.001 -5.55112e-17
625 1 131.869 128.95 -5.55112e-17
626 1 198.254 34.2917 -5.55112e-17
627 1 67.6602 157.307 -5.55112e-17
628 1 184.531 28.0454 -5.55112e-17
629 1 4.99473 22.5237 -5.55112e-17
630 2 45.6824 23.823 -5.55112e-17
631 1 200.834 202.002 -5.55112e-17
632 1 19.2217 135.993 -5.55112e-17
633 1 211.758 18.8713 -5.55112e-17
634 1 190.361 84.3903 -5.55112e-17
635 1 168.736 207.215 -5.55112e-17
636 1 138.937 116.836 -5.55112e-17
637 1 23.819 68.6816 -5.55112e-17
638 1 83.8789 214.106 -5.55112e-17
639 2 86.1029 77.759 -5.55112e-17
640 1 113.079 171.057 -5.55112e-17
641 1 52.567 35.0806 -5.55112e-17
642 1 196.078 187.612 -5.55112e-17
643 2 157.593 167.439 -5.55112e-17
644 1 145.927 69.2588 -5.55112e-17
645 1 201.012 150.217 -5.55112e-17
646 2 6.82987 214.866 -5.55112e-17
647 1 69.2657 212.277 -5.55112e-17
648 1 124.146 212.827 -5.55112e-17
649 2 53.4866 120.712 -5.55112e-17
650 1 75.7083 50.7945 -5.55112e-17
651 1 136.196 138.43 -5.55112e-17
652 1 188.853 21.7608 -5.55112e-17
653 1 12.0854 133.231 -5.55112e-17
654 1 56.2099 88.4107 -5.55112e-17
655 2 191.926 202.142 -5.55112e-17
656 1 137.387 23.5527 -5.55112e-17
657 2 15.7854 50.3118 -5.55112e-17
658 1 115.66 216.598 -5.55112e-17
659 2 2.70705 101.673 -5.55112e-17
660 1 183.789 167.88 -5.55112e-17
661 1 73.7612 168.889 -5.55112e-17
662 1 174.874 163.986 -5.55112e-17
663 1 14.0868 179.501 -5.55112e-17
664 1 121.602 44.4931 -5.55112e-17
665 1 105.649 55.676 -5.55112e-17
666 2 12.9946 29.5868 -5.55112e-17
667 1 78.7562 193.419 -5.55112e-17
668 2 70.0443 188.204 -5.55112e-17
669 1 73.4255 7.39417 -5.55112e-17
670 1 139.242 167.858 -5.55112e-17
671 2 163.351 205.818 -5.55112e-17
672 1 46.8041 88.4556 -5.55112e-17
673 1 67.729 37.0676 -5.55112e-17
674 1 141.735 92.7406 -5.55112e-17
675 1 61.2292 48.8622 -5.55112e-17
676 1 184.888 66.6695 -5.55112e-17
677 1 110.405 128.216 -5.55112e-17
678 1 48.2369 155.347 -5.55112e-17
679 2 79.3585 45.2057 -5.55112e-17
680 1 34.2298 143.677 -5.55112e-17
681 2 9.64633 90.6011 -5.55112e-17
682 1 15.0208 204.742 -5.55112e-17
683 1 134.792 177.889 -5.55112e-17
684 1 92.6868 19.8338 -5.55112e-17
685 1 64.1784 208.788 -5.55112e-17
686 1 143.585 32.5685 -5.55112e-17
687 1 120.652 12.1765 -5.55112e-17
688 1 217.722 1.00153 -5.55112e-17
689 2 208.06 178.542 -5.55112e-17
690 1 16.9916 77.3442 -5.55112e-17
691 1 100.19 71.1639 -5.55112e-17
692 1 215.353 167.281 -5.55112e-17
693 1 191.453 29.0058 -5.55112e-17
694 1 216.586 96.8084 -5.55112e-17
695 1 183.579 182.501 -5.55112e-17
696 1 173.997 134.248 -5.55112e-17
697 1 39.254 20.8001 -5.55112e-17
698 1 59.6859 194.63 -5.55112e-17
699 1 30.1929 38.4285 -5.55112e-17
700 1 89.1639 34.3316 -5.55112e-17
701 1 45.3589 38.3686 -5.55112e-17
702 1 139.815 53.4155 -5.55112e-17
703 2 107.501 58.3234 -5.55112e-17
704 1 41.3344 203.459 -5.55112e-17
705 2 77.5689 160.579 -5.55112e-17
706 1 161.269 133.943 -5.55112e-17
707 1 169.854 51.6964 -5.55112e-17
708 1 168.173 58.4368 -5.55112e-17
709 1 124.562 31.7509 -5.55112e-17
710 1 126.97 173.685 -5.55112e-17
711 1 100.565 153.583 -5.55112e-17
712 1 210.426 143.058 -5.55112e-17
713 1 162.386 96.616 -5.55112e-17
714 1 156.049 46.6651 -5.55112e-17
715 1 213.289 35.1173 -5.55112e-17
716 1 131.591 161.973 -5.55112e-17
717 1 125.707 140.973 -5.55112e-17
718 1 209.461 61.819 -5.55112e-17
719 2 215.072 42.5106 -5.55112e-17
720 1 49.6761 50.3085 -5.55112e-17
721 1 209.21 152.811 -5.55112e-17
722 1 150.544 204.92 -5.55112e-17
723 2 116.59 181.041 -5.55112e-17
724 1 165.798 124.108 -5.55112e-17
725 1 71.4735 130.807 -5.55112e-17
726 1 67.6985 184.458 -5.55112e-17
727 1 191.798 70.1363 -5.55112e-17
728 2 172.259 161.655 -5.55112e-17
729 1 35.6637 128.35 -5.55112e-17
730 1 135.559 33.0418 -5.55112e-17
731 1 186.302 64.6644 -5.55112e-17
732 1 38.8059 129.007 -5.55112e-17
733 1 188.326 132.449 -5.55112e-17
734 1 201.969 48.2766 -5.55112e-17
735 1 215.483 58.3092 -5.55112e-17
736 2 31.9864 87.1938 -5.55112e-17
737 1 158.551 68.5051 -5.55112e-17
738 1 119.36 114.116 -5.55112e-17
739 1 39.8241 57.1901 -5.55112e-17
740 1 100.204 89.4669 -5.55112e-17
741 2 66.0649 165.727 -5.55112e-17
742 1 18.6383 98.3996 -5.55112e-17
743 1 118.558 128.321 -5.55112e-17
744 2 19.7951 46.8179 -5.55112e-17
745 1 211.585 16.0452 -5.55112e-17
746 1 99.6839 64.8892 -5.55112e-17
747 2 14.646 75.0529 -5.55112e-17
748 1 19.0009 169.152 -5.55112e-17
749 1 143.002 174.063 -5.55112e-17
750 1 37.0973 110.737 -5.55112e-17
751 1 52.3057 136.251 -5.55112e-17
752 1 1.83979 53.1328 -5.55112e-17
753 1 14.3337 144.907 -5.55112e-17
754 1 57.9001 182.618 -5.55112e-17
755 1 204.806 61.1045 -5.55112e-17
756 2 54.8993 3.83789 -5.55112e-17
757 1 133.028 11.8862 -5.55112e-17
758 1 183.799 57.6772 -5.55112e-17
759 1 23.0723 194.259 -5.55112e-17
760 1 81.21 86.0238 -5.55112e-17
761 1 100.288 5.98111 -5.55112e-17
762 1 175.144 200.226 -5.55112e-17
763 1 203.041 184.963 -5.55112e-17
764 2 198.002 183.069 -5.55112e-17
765 1 24.7558 106.133 -5.55112e-17
766 1 6.89658 118.523 -5.55112e-17
767 1 4.34958 134.849 -5.55112e-17
768 1 121.53 156.206 -5.55112e-17
769 1 182.968 9.41508 -5.55112e-17
770 2 91.7048 36.3333 -5.55112e-17
771 1 35.7923 117.216 -5.55112e-17
772 1 205.848 120.671 -5.55112e-17
773 1 102.286 72.432 -5.55112e-17
774 1 17.7762 102.2 -5.55112e-17
775 1 112.249 54.6032 -5.55112e-17
776 1 211.003 128.634 -5.55112e-17
777 1 107.818 96.3133 -5.55112e-17
778 1 196.51 170.533 -5.55112e-17
779 1 96.5218 156.685 -5.55112e-17
780 1 135.782 175.423 -5.55112e-17
781 1 215.218 180.788 -5.55112e-17
782 1 60.218 162.437 -5.55112e-17
783 1 174.813 108.502 -5.55112e-17
784 2 161.846 213.557 -5.55112e-17
785 1 114.241 179.239 -5.55112e-17
786 1 169.257 194.529 -5.55112e-17
787 1 214.161 174.823 -5.55112e-17
788 1 196.15 8.07457 -5.55112e-17
789 2 45.4109 189.188 -5.55112e-17
790 1 116.823 129.985 -5.55112e-17
791 2 79.5577 7.86856 -5.55112e-17
792 2 171.67 76.1122 -5.55112e-17
793 2 1.17972 212.851 -5.55112e-17
794 1 205.532 45.2105 -5.55112e-17
795 1 184.736 7.31652 -5.55112e-17
796 1 113.98 79.3323 -5.55112e-17
797 1 182.698 84.8555 -5.55112e-17
798 2 216.707 13.5166 -5.55112e-17
799 2 112.227 214.241 -5.55112e-17
800 2 197.686 41.8994 -5.55112e-17
801 1 172.676 110.79 -5.55112e-17
802 1 4.31763 91.0187 -5.55112e-17
803 1 60.047 10.7715 -5.55112e-17
804 2 27.8576 216.545 -5.55112e-17
805 1 112.906 98.5014 -5.55112e-17
806 1 30.5793 84.4669 -5.55112e-17
807 2 152.287 121.225 -5.55112e-17
808 1 32.0571 53.5774 -5.55112e-17
809 2 122.466 3.74769 -5.55112e-17
810 1 115.408 136.237 -5.55112e-17
811 1 83.33 71.7468 -5.55112e-17
812 1 60.9729 20.125 -5.55112e-17
813 2 99.3611 13.383 -5.55112e-17
814 1 69.2582 30.1381 -5.55112e-17
815 1 159.081 49.9181 -5.55112e-17
816 1 165.419 89.6304 -5.55112e-17
817 1 138.987 113.971 -5.55112e-17
818 1 25.1359 217.843 -5.55112e-17
819 1 56.4273 138.141 -5.55112e-17
820 1 207.858 181.643 -5.55112e-17
821 1 44.9254 133.391 -5.55112e-17
822 2 66.366 211.797 -5.55112e-17
823 2 195.255 194.967 -5.55112e-17
824 1 194.707 19.02 -5.55112e-17
825 1 76.6117 122.457 -5.55112e-17
826 1 38.0804 134.843 -5.55112e-17
827 1 217.478 27.8834 -5.55112e-17
828 1 218.562 58.3343 -5.55112e-17
829 1 188.467 93.8579 -5.55112e-17
830 1 126.628 148.908 -5.55112e-17
831 1 159.621 120.109 -5.55112e-17
832 1 178.169 90.2388 -5.55112e-17
833 1 97.4172 77.4809 -5.55112e-17
834 1 116.747 9.45008 -5.55112e-17
835 1 11.7771 54.8883 -5.55112e-17
836 1 126.106 19.657 -5.55112e-17
837 1 77.239 40.0259 -5.55112e-17
838 1 199.867 36.5719 -5.55112e-17
839 2 64.8394 31.4505 -5.55112e-17
840 1 86.8566 35.9155 -5.55112e-17
841 2 158.765 194.953 -5.55112e-17
842 1 181.786 80.0627 -5.55112e-17
843 2 51.1176 67.3882 -5.55112e-17
844 1 5.76748 168.901 -5.55112e-17
845 1 160.991 27.3072 -5.55112e-17
846 1 157.628 30.109 -5.55112e-17
847 1 69.9455 103.437 -5.55112e-17
848 1 122.851 145.71 -5.55112e-17
849 1 42.9883 173.151 -5.55112e-17
850 1 63.6222 130.853 -5.55112e-17
851 1 70.0332 24.2989 -5.55112e-17
852 1 137.869 80.6969 -5.55112e-17
853 1 61.0116 3.60295 -5.55112e-17
854 1 212.544 94.2203 -5.55112e-17
855 1 9.88946 85.6959 -5.55112e-17
856 1 43.6792 91.5647 -5.55112e-17