ITEM: TIMESTEP
0
ITEM: NUMBER OF ATOMS
7200
ITEM: BOX BOUNDS xy xz yz pp pp pp
0.0000000000000000e+00 2.1900000000000000e+02 0.0000000000000000e+00
0.0000000000000000e+00 2.1900000000000000e+02 0.0000000000000000e+00
-3.6499999999999999e-01 3.6499999999999999e-01 0.0000000000000000e+00
ITEM: ATOMS id type x y z
1 1 195.417 37.7805 -5.55112e-17
2 1 61.5285 135.431 -5.55112e-17
3 1 206.282 151.824 -5.55112e-17
4 1 155.982 54.7099 -5.55112e-17
5 1 72.3025 145.261 -5.55112e-17
6 1 9.71606 178.757 -5.55112e-17
7 1 47.7986 42.2139 -5.55112e-17
8 2 36.7834 138.908 -5.55112e-17
9 1 137.852 19.6564 -5.55112e-17
10 2 12.0934 30.1851 -5.55112e-17
11 1 54.0757 49.4787 -5.55112e-17
12 1 136.434 0.524536 -5.55112e-17
13 2 132.045 208.376 -5.55112e-17
14 1 95.7522 36.9817 -5.55112e-17
15 1 63.0646 174.803 -5.55112e-17
16 2 68.5655 141.122 -5.55112e-17
17 1 34.3237 107.284 -5.55112e-17
18 2 66.7917 11.3582 -5.55112e-17
19 1 120.327 202.08 -5.55112e-17
20 1 19.1233 64.3803 -5.55112e-17
21 1 61.7872 203.244 -5.55112e-17
22 2 73.635 120.017 -5.55112e-17
23 2 32.8946 43.5419 -5.55112e-17
24 1 22.8998 210.816 -5.55112e-17
25 1 81.5425 129.155 -5.55112e-17
26 2 209.129 124.464 -5.55112e-17
27 1 218.47 82.607 -5.55112e-17
28 2 65.8157 121.827 -5.55112e-17
29 1 17.3079 159.413 -5.55112e-17
30 1 164.029 55.465 -5.55112e-17
31 1 171.281 112.027 -5.55112e-17
32 1 187.699 56.2928 -5.55112e-17
33 1 107.877 143.497 -5.55112e-17
34 1 7.6983 171.888 -5.55112e-17
35 1 105.573 132.73 -5.55112e-17
36 1 15.7788 106.702 -5.55112e-17
37 2 47.8643 210.674 -5.55112e-17
38 1 59.3657 53.9049 -5.55112e-17
39 1 45.1803 56.3993 -5.55112e-17
40 1 78.4482 149.648 -5.55112e-17
41 1 25.5667 198.401 -5.55112e-17
42 1 14.8141 52.1125 -5.55112e-17
43 1 95.8155 50.8435 -5.55112e-17
44 1 7.90855 5.59158 -5.55112e-17
45 1 164.749 63.6797 -5.55112e-17
46 1 155.303 166.779 -5.55112e-17
47 1 73.525 194.801 -5.55112e-17
48 2 139.947 201.367 -5.55112e-17
49 1 84.903 214.144 -5.55112e-17
50 1 41.6474 129.076 -5.55112e-17
51 1 143.81 17.6081 -5.55112e-17
52 1 142.763 75.1665 -5.55112e-17
53 1 152.571 99.6722 -5.55112e-17
54 1 208.484 55.2559 -5.55112e-17
55 1 201.993 19.6327 -5.55112e-17
56 1 72.4836 125.834 -5.55112e-17
57 2 33.1909 179.457 -5.55112e-17
58 1 173.676 28.8949 -5.55112e-17
59 1 202.155 33.3558 -5.55112e-17
60 2 8.92522 45.0963 -5.55112e-17
61 2 18.4542 177.592 -5.55112e-17
62 1 140.948 57.1886 -5.55112e-17
63 1 150.391 169.476 -5.55112e-17
64 1 36.2954 65.881 -5.55112e-17
65 1 61.0271 30.4351 -5.55112e-17
66 1 21.2292 22.0888 -5.55112e-17
67 1 56.9088 203.216 -5.55112e-17
68 1 51.2314 130.609 -5.55112e-17
69 1 64.5358 179.148 -5.55112e-17
70 1 205.428 198.496 -5.55112e-17
71 1 183.904 159.326 -5.55112e-17
72 1 144.395 5.95776 -5.55112e-17
73 1 208.08 142.195 -5.55112e-17
74 1 211.263 112.88 -5.55112e-17
75 2 31.2847 16.4606 -5.55112e-17
76 1 100.245 99.333 -5.55112e-17
77 1 15.4439 66.3185 -5.55112e-17
78 1 33.4479 182.632 -5.55112e-17
79 2 206.488 85.0288 -5.55112e-17
80 1 126.352 56.949 -5.55112e-17
81 1 45.1025 17.6465 -5.55112e-17
82 1 17.1061 24.7258 -5.55112e-17
83 2 157.853 31.2397 -5.55112e-17
84 1 47.6461 207.193 -5.55112e-17
85 1 20.2776 3.87154 -5.55112e-17
86 1 172.794 133.555 -5.55112e-17
87 1 17.2239 119.721 -5.55112e-17
88 1 1.4637 159.928 -5.55112e-17
89 2 35.2764 79.5151 -5.55112e-17
90 2 26.2563 205.664 -5.55112e-17
91 1 161.449 76.102 -5.55112e-17
92 2 147.777 54.0818 -5.55112e-17
93 1 19.5095 29.2664 -5.55112e-17
94 2 18.9941 215.013 -5.55112e-17
95 1 187.308 86.2185 -5.55112e-17
96 1 98.8136 10.696 -5.55112e-17
97 1 207.852 74.002 -5.55112e-17
98 1 148.115 154.699 -5.55112e-17
99 1 96.106 125.257 -5.55112e-17
100 1 174.355 95.666 -5.55112e-17
101 1 100.962 81.1578 -5.55112e-17
102 1 99.5792 185.121 -5.55112e-17
103 1 158.728 199.442 -5.55112e-17
104 1 102.102 121.162 -5.55112e-17
105 1 36.4449 85.0385 -5.55112e-17
106 1 70.513 143.731 -5.55112e-17
107 2 138.155 208.779 -5.55112e-17
108 1 68.2371 107.603 -5.55112e-17
109 1 207.677 119.638 -5.55112e-17
110 1 151.495 210.286 -5.55112e-17
111 1 212.119 123.279 -5.55112e-17
112 1 14.7963 172.976 -5.55112e-17
113 1 205.964 68.6088 -5.55112e-17
114 1 77.7074 132.215 -5.55112e-17
115 1 30.1469 187.273 -5.55112e-17
116 2 71.1353 176.17 -5.55112e-17
117 1 83.7773 171.562 -5.55112e-17
118 1 183.422 163.588 -5.55112e-17
119 2 98.9767 25.572 -5.55112e-17
120 1 64.9749 27.841 -5.55112e-17
121 1 149.249 14.2255 -5.55112e-17
122 1 139.329 6.8337 -5.55112e-17
123 1 128.571 118.604 -5.55112e-17
124 1 109.125 139.158 -5.55112e-17
125 1 149.888 141.557 -5.55112e-17
126 1 193.167 167.198 -5.55112e-17
127 1 29.7815 200.428 -5.55112e-17
128 1 116.712 79.1929 -5.55112e-17
129 1 109.284 32.9342 -5.55112e-17
130 1 85.394 66.4331 -5.55112e-17
131 1 83.555 61.466 -5.55112e-17
132 2 118.501 89.4705 -5.55112e-17
133 1 32.0156 26.808 -5.55112e-17
134 1 161.206 111.215 -5.55112e-17
135 1 154.785 76.9654 -5.55112e-17
136 1 134.894 91.7272 -5.55112e-17
137 1 189.2 46.5976 -5.55112e-17
138 1 131.52 78.6966 -5.55112e-17
139 1 10.9889 106.019 -5.55112e-17
140 2 203.588 166.917 -5.55112e-17
141 1 109.191 179.413 -5.55112e-17
142 2 34.4566 205.901 -5.55112e-17
143 1 16.3828 10.722 -5.55112e-17
144 2 149.356 83.4158 -5.55112e-17
145 1 150.603 80.0559 -5.55112e-17
146 1 17.0616 22.2932 -5.55112e-17
147 1 57.9304 211.971 -5.55112e-17
148 1 50.6976 139.82 -5.55112e-17
149 1 142.128 4.82192 -5.55112e-17
150 1 110.71 195.136 -5.55112e-17
151 1 10.5343 5.93274 -5.55112e-17
152 1 213.05 142.177 -5.55112e-17
153 2 112.861 86.6873 -5.55112e-17
154 1 40.8003 98.4989 -5.55112e-17
155 1 149.231 16.9333 -5.55112e-17
156 2 136.725 109.585 -5.55112e-17
157 1 96.0275 65.5009 -5.55112e-17
158 1 145.687 203.13 -5.55112e-17
159 1 140.061 213.656 -5.55112e-17
160 1 18.7006 187.773 -5.55112e-17
161 1 86.3892 137.563 -5.55112e-17
162 1 112.183 9.12599 -5.55112e-17
163 1 174.602 175.857 -5.55112e-17
164 1 93.0264 54.506 -5.55112e-17
165 1 46.9627 218.399 -5.55112e-17
166 2 116.438 163.684 -5.55112e-17
167 1 183.255 112.152 -5.55112e-17
168 1 107.905 61.7108 -5.55112e-17
169 1 131.406 162.431 -5.55112e-17
170 1 114.392 151.684 -5.55112e-17
171 1 98.5682 161.793 -5.55112e-17
172 1 7.76697 80.6331 -5.55112e-17
173 1 55.3365 193.459 -5.55112e-17
174 1 21.3324 11.2632 -5.55112e-17
175 2 11.7973 61.4887 -5.55112e-17
176 1 8.8842 136.853 -5.55112e-17
177 2 45.2381 94.4558 -5.55112e-17
178 1 47.7513 194.324 -5.55112e-17
179 1 50.9534 69.2604 -5.55112e-17
180 1 39.6427 207.041 -5.55112e-17
181 1 115.325 33.5496 -5.55112e-17
182 2 29.1081 78.68 -5.55112e-17
183 1 69.9322 169.064 -5.55112e-17
184 1 68.6464 97.8816 -5.55112e-17
185 2 165.322 58.2385 -5.55112e-17
186 2 83.6119 98.0269 -5.55112e-17
187 1 157.589 143.131 -5.55112e-17
188 1 49.0875 157.768 -5.55112e-17
189 1 206.852 129.205 -5.55112e-17
190 2 3.89895 187.423 -5.55112e-17
191 1 1.07135 154.068 -5.55112e-17
192 2 145.519 45.9288 -5.55112e-17
193 2 51.1992 50.7988 -5.55112e-17
194 1 160.302 122.641 -5.55112e-17
195 1 22.4612 136.546 -5.55112e-17
196 1 195.503 160.363 -5.55112e-17
197 1 206.003 60.5769 -5.55112e-17
198 2 95.3548 150.02 -5.55112e-17
199 1 211.923 62.5087 -5.55112e-17
200 1 54.6404 6.18438 -5.55112e-17
201 2 9.57465 3.08829 -5.55112e-17
202 1 18.6241 78.0835 -5.55112e-17
203 1 20.9064 79.1234 -5.55112e-17
204 1 104.889 7.41826 -5.55112e-17
205 2 193.31 176.013 -5.55112e-17
206 1 18.7445 12.1685 -5.55112e-17
207 1 156.499 78.4348 -5.55112e-17
208 1 55.4299 100.903 -5.55112e-17
209 1 169.348 61.7569 -5.55112e-17
210 1 167.993 155.948 -5.55112e-17
211 2 202.781 125.041 -5.55112e-17
212 1 88.694 112.313 -5.55112e-17
213 1 93.7472 185.828 -5.55112e-17
214 1 14.8618 23.8643 -5.55112e-17
215 1 149.575 152.939 -5.55112e-17
216 1 86.9593 46.6246 -5.55112e-17
217 1 213.03 87.6704 -5.55112e-17
218 2 8.77074 8.37449 -5.55112e-17
219 1 150.222 31.4904 -5.55112e-17
220 2 43.0889 138.586 -5.55112e-17
221 1 43.0099 102.815 -5.55112e-17
222 1 32.918 87.7109 -5.55112e-17
223 1 128.668 57.8119 -5.55112e-17
224 2 142.546 162.259 -5.55112e-17
225 1 159.817 178.334 -5.55112e-17
226 1 159.638 71.8905 -5.55112e-17
227 2 153.59 74.5331 -5.55112e-17
228 1 40.1587 36.6254 -5.55112e-17
229 1 212.537 139.077 -5.55112e-17
230 1 172.927 117.354 -5.55112e-17
231 1 87.467 93.6633 -5.55112e-17
232 1 131.842 96.1028 -5.55112e-17
233 1 86.4453 216.504 -5.55112e-17
234 1 120.276 110.107 -5.55112e-17
235 1 116.557 182.465 -5.55112e-17
236 1 199.999 125.997 -5.55112e-17
237 1 177.715 210.041 -5.55112e-17
238 1 70.0487 113.508 -5.55112e-17
239 2 187.692 20.759 -5.55112e-17
240 1 217.744 6.7183 -5.55112e-17
241 2 43.9818 7.05811 -5.55112e-17
242 2 125.212 9.13624 -5.55112e-17
243 2 114.613 173.915 -5.55112e-17
244 1 131.229 89.2084 -5.55112e-17
245 1 96.5288 106.203 -5.55112e-17
246 1 127.232 202.739 -5.55112e-17
247 1 204.927 19.0455 -5.55112e-17
248 1 150.957 104.502 -5.55112e-17
249 1 173.923 180.35 -5.55112e-17
250 2 15.6033 88.969 -5.55112e-17
251 1 198.157 89.4035 -5.55112e-17
252 1 34.6214 63.7609 -5.55112e-17
253 1 78.4667 89.9853 -5.55112e-17
254 2 154.262 59.7469 -5.55112e-17
255 1 39.9863 192.137 -5.55112e-17
256 1 71.2543 208.704 -5.55112e-17
257 1 57.8925 126.87 -5.55112e-17
258 2 6.14074 50.0066 -5.55112e-17
259 1 55.337 105.086 -5.55112e-17
260 1 159.018 84.8776 -5.55112e-17
261 1 33.5203 147.576 -5.55112e-17
262 1 51.348 118.95 -5.55112e-17
263 1 165.443 10.9223 -5.55112e-17
264 1 68.171 57.7236 -5.55112e-17
265 1 182.657 66.833 -5.55112e-17
266 1 54.543 115.096 -5.55112e-17
267 1 117.696 74.789 -5.55112e-17
268 1 55.4333 35.4748 -5.55112e-17
269 1 90.494 65.7438 -5.55112e-17
270 1 57.1771 185.304 -5.55112e-17
271 1 129.461 146.879 -5.55112e-17
272 1 93.2323 161.61 -5.55112e-17
273 1 76.6099 119.743 -5.55112e-17
274 2 84.3291 58.1992 -5.55112e-17
275 1 42.6962 42.8737 -5.55112e-17
276 2 8.33123 200.661 -5.55112e-17
277 2 57.9351 142.834 -5.55112e-17
278 1 132.75 141.665 -5.55112e-17
279 2 93.9702 168.589 -5.55112e-17
280 1 165.95 28.8001 -5.55112e-17
281 1 194.909 18.7469 -5.55112e-17
282 1 148.767 139.492 -5.55112e-17
283 1 104.325 163.028 -5.55112e-17
284 1 76.3268 105.364 -5.55112e-17
285 1 52.05 47.4081 -5.55112e-17
286 2 85.3232 133.089 -5.55112e-17
287 1 25.7544 41.5688 -5.55112e-17
288 1 59.1724 196.745 -5.55112e-17
289 1 8.58504 13.8417 -5.55112e-17
290 1 109.92 98.7051 -5.55112e-17
291 1 61.8509 80.6239 -5.55112e-17
292 2 194.632 35.0822 -5.55112e-17
293 2 24.0851 151.404 -5.55112e-17
294 1 84.2932 199.372 -5.55112e-17
295 1 37.0752 127.461 -5.55112e-17
296 1 74.4482 127.634 -5.55112e-17
297 1 212.8 17.6378 -5.55112e-17
298 1 46.7375 1.79619 -5.55112e-17
299 1 59.678 17.3389 -5.55112e-17
300 2 43.1061 113.081 -5.55112e-17
301 1 116.786 133.722 -5.55112e-17
302 1 3.52504 37.7398 -5.55112e-17
303 2 201.019 96.3533 -5.55112e-17
304 2 0.641644 170.15 -5.55112e-17
305 1 101.1 52.1902 -5.55112e-17
306 1 48.9833 147.723 -5.55112e-17
307 1 67.2077 85.2591 -5.55112e-17
308 1 96.727 210.49 -5.55112e-17
309 2 128.37 41.5196 -5.55112e-17
310 1 217.352 85.1691 -5.55112e-17
311 1 106.663 138.265 -5.55112e-17
312 1 32.465 53.9445 -5.55112e-17
313 2 68.3328 5.25416 -5.55112e-17
314 1 189.093 120.387 -5.55112e-17
315 1 113.861 204.539 -5.55112e-17
316 1 163.645 194.592 -5.55112e-17
317 1 186.377 6.75234 -5.55112e-17
318 1 207.534 156.204 -5.55112e-17
319 1 199.994 26.8078 -5.55112e-17
320 1 154.36 190.904 -5.55112e-17
321 1 215.205 142.887 -5.55112e-17
322 1 124.944 12.1334 -5.55112e-17
323 1 42.1676 115.625 -5.55112e-17
324 1 196.496 82.279 -5.55112e-17
325 1 103.923 118.988 -5.55112e-17
326 1 36.409 23.7803 -5.55112e-17
327 2 149.706 189.1 -5.55112e-17
328 1 207.9 89.8627 -5.55112e-17
329 2 132.025 4.07748 -5.55112e-17
330 1 139.784 75.1614 -5.55112e-17
331 1 162.631 207.218 -5.55112e-17
332 2 74.7169 175.93 -5.55112e-17
333 1 103.833 10.0464 -5.55112e-17
334 1 27.3299 48.5632 -5.55112e-17
335 1 58.3437 218.648 -5.55112e-17
336 1 64.0864 93.4954 -5.55112e-17
337 1 119.197 134.901 -5.55112e-17
338 1 5.56266 27.2661 -5.55112e-17
339 1 166.535 203.449 -5.55112e-17
340 1 101.039 1.01693 -5.55112e-17
341 1 14.0681 59.7123 -5.55112e-17
342 1 5.58427 89.1662 -5.55112e-17
343 1 123.144 41.6446 -5.55112e-17
344 1 84.7156 210.002 -5.55112e-17
345 1 166.257 138.206 -5.55112e-17
346 1 42.334 150.572 -5.55112e-17
347 1 198.106 116.927 -5.55112e-17
348 1 144.055 187.663 -5.55112e-17
349 1 182.585 148.645 -5.55112e-17
350 2 165.465 22.0025 -5.55112e-17
351 1 29.3967 192.733 -5.55112e-17
352 1 202.615 160.786 -5.55112e-17
353 1 125.297 204.809 -5.55112e-17
354 1 6.11181 189.352 -5.55112e-17
355 1 125.212 80.3865 -5.55112e-17
356 1 125.421 210.559 -5.55112e-17
357 1 11.8322 16.9509 -5.55112e-17
358 1 184.412 39.1826 -5.55112e-17
359 1 16.6052 19.0833 -5.55112e-17
360 1 126.023 118.235 -5.55112e-17
361 1 107.342 186.936 -5.55112e-17
362 1 180.359 194.734 -5.55112e-17
363 1 201.38 68.2461 -5.55112e-17
364 2 91.1483 146.455 -5.55112e-17
365 1 52.3017 152.252 -5.55112e-17
366 1 141.32 2.36871 -5.55112e-17
367 1 217.837 31.0496 -5.55112e-17
368 1 181.172 105.09 -5.55112e-17
369 2 97.8888 142.538 -5.55112e-17
370 1 152.532 97.392 -5.55112e-17
371 1 13.8009 18.7978 -5.55112e-17
372 2 75.1656 124.991 -5.55112e-17
373 2 114.184 135.547 -5.55112e-17
374 1 30.5841 61.65 -5.55112e-17
375 1 163.227 131.858 -5.55112e-17
376 1 163.934 198.827 -5.55112e-17
377 1 32.2527 128.972 -5.55112e-17
378 1 114.223 45.3483 -5.55112e-17
379 1 107.212 70.9741 -5.55112e-17
380 1 144.749 51.5474 -5.55112e-17
381 1 16.8229 39.2307 -5.55112e-17
382 1 177.661 162.85 -5.55112e-17
383 1 212.886 107.201 -5.55112e-17
384 1 215.67 83.2737 -5.55112e-17
385 1 2.08825 209.735 -5.55112e-17
386 2 18.3106 91.6436 -5.55112e-17
387 1 95.9865 18.9126 -5.55112e-17
388 1 144.07 22.4222 -5.55112e-17
389 1 113.816 23.4182 -5.55112e-17
390 2 64.214 157.047 -5.55112e-17
391 2 115.005 167.979 -5.55112e-17
392 1 93.5056 39.0265 -5.55112e-17
393 1 217.353 4.19884 -5.55112e-17
394 1 79.3586 67.0522 -5.55112e-17
395 1 121.846 155.168 -5.55112e-17
396 1 135.937 77.5998 -5.55112e-17
397 1 191.119 208.646 -5.55112e-17
398 1 115.829 81.3753 -5.55112e-17
399 1 179.973 192.086 -5.55112e-17
400 1 100.426 38.936 -5.55112e-17
401 1 72.1782 10.4996 -5.55112e-17
402 2 30.9118 10.6168 -5.55112e-17
403 1 93.6943 5.26191 -5.55112e-17
404 1 99.0391 43.2092 -5.55112e-17
405 1 8.63233 116.376 -5.55112e-17
406 1 155.714 200.158 -5.55112e-17
407 2 126.721 186.35 -5.55112e-17
408 1 52.8668 17.3444 -5.55112e-17
409 1 138.819 55.9483 -5.55112e-17
410 1 76.6655 183.088 -5.55112e-17
411 1 7.95358 83.3901 -5.55112e-17
412 1 184.197 150.624 -5.55112e-17
413 1 41.0851 105.036 -5.55112e-17
414 1 194.266 173.408 -5.55112e-17
415 1 124.641 1.98172 -5.55112e-17
416 1 8.48816 11.3416 -5.55112e-17
417 1 10.4422 25.3881 -5.55112e-17
418 2 176.32 206.831 -5.55112e-17
419 1 142.977 0.581242 -5.55112e-17
420 2 59.3266 204.775 -5.55112e-17
421 1 211.816 130.051 -5.55112e-17
422 1 18.2203 170.032 -5.55112e-17
423 2 29.1161 162.553 -5.55112e-17
424 1 200.647 168.441 -5.55112e-17
425 1 91.0425 53.3239 -5.55112e-17
426 1 188.522 198.347 -5.55112e-17
427 1 176.08 9.79727 -5.55112e-17
428 1 113.801 162.589 -5.55112e-17
429 1 69.2447 33.885 -5.55112e-17
430 1 107.766 97.4595 -5.55112e-17
431 1 134.119 27.2959 -5.55112e-17
432 1 59.7513 185.293 -5.55112e-17
433 1 92.6222 129.25 -5.55112e-17
434 1 79.1846 47.1936 -5.55112e-17
435 1 15.8339 184.92 -5.55112e-17
436 1 82.2317 54.0849 -5.55112e-17
437 1 57.4335 167.647 -5.55112e-17
438 2 21.6657 156.569 -5.55112e-17
439 1 133.096 164.5 -5.55112e-17
440 1 70.9679 183.432 -5.55112e-17
441 1 11.6228 8.08782 -5.55112e-17
442 1 195.423 207.692 -5.55112e-17
443 1 168.785 167.56 -5.55112e-17
444 1 161.724 174.31 -5.55112e-17
445 1 217.317 75.0048 -5.55112e-17
446 1 7.79456 93.8345 -5.55112e-17
447 1 3.15163 202.749 -5.55112e-17
448 1 179.649 130.152 -5.55112e-17
449 1 147.736 48.3166 -5.55112e-17
450 1 199.075 121.16 -5.55112e-17
451 1 207.426 57.5023 -5.55112e-17
452 1 141.935 105.458 -5.55112e-17
453 1 177.896 43.1696 -5.55112e-17
454 1 132.294 154.091 -5.55112e-17
455 1 90.317 29.5102 -5.55112e-17
456 1 115.823 88.4191 -5.55112e-17
457 1 183.283 109.506 -5.55112e-17
458 1 185.321 66.0535 -5.55112e-17
459 1 207.326 161.281 -5.55112e-17
460 1 211.536 95.4473 -5.55112e-17
461 1 211.679 22.6712 -5.55112e-17
462 1 78.6479 36.9511 -5.55112e-17
463 1 7.91417 118.698 -5.55112e-17
464 1 116.406 2.44977 -5.55112e-17
465 1 49.6169 73.7742 -5.55112e-17
466 1 18.4844 143.804 -5.55112e-17
467 1 19.4421 217.55 -5.55112e-17
468 1 96.1728 157.508 -5.55112e-17
469 1 113.951 209.207 -5.55112e-17
470 1 190.038 108.7 -5.55112e-17
471 1 58.7003 172.861 -5.55112e-17
472 1 95.4864 53.6911 -5.55112e-17
473 1 82.5787 185.913 -5.55112e-17
474 1 69.6103 102.882 -5.55112e-17
475 1 192.968 51.901 -5.55112e-17
476 2 217.034 188.671 -5.55112e-17
477 1 108.309 133.915 -5.55112e-17
478 1 151.48 5.30101 -5.55112e-17
479 1 160.209 44.4534 -5.55112e-17
480 1 28.3418 174.742 -5.55112e-17
481 1 156.714 94.3147 -5.55112e-17
482 1 201.642 8.59532 -5.55112e-17
483 1 76.2504 208.5 -5.55112e-17
484 2 42.2495 193.664 -5.55112e-17
485 1 173.626 0.687303 -5.55112e-17
486 1 115.179 143.614 -5.55112e-17
487 1 56.2574 177.995 -5.55112e-17
488 1 176.666 82.2433 -5.55112e-17
489 1 138.943 138.916 -5.55112e-17
490 1 112.05 60.0908 -5.55112e-17
491 1 171.438 179.689 -5.55112e-17
492 1 62.4625 16.8543 -5.55112e-17
493 1 38.4026 34.6633 -5.55112e-17
494 1 177.918 66.8912 -5.55112e-17
495 1 88.1679 188.153 -5.55112e-17
496 2 188.586 4.66216 -5.55112e-17
497 1 166.196 76.3957 -5.55112e-17
498 1 48.7867 130.451 -5.55112e-17
499 2 168.955 58.2417 -5.55112e-17
500 1 212.037 171.111 -5.55112e-17
501 2 62.1366 88.3991 -5.55112e-17
502 2 163.511 91.7141 -5.55112e-17
503 1 168.604 72.251 -5.55112e-17
504 1 12.2787 173.581 -5.55112e-17
505 1 40.6711 13.2545 -5.55112e-17
506 1 157.032 130.199 -5.55112e-17
507 1 187.996 42.6408 -5.55112e-17
508 1 90.5895 161.448 -5.55112e-17
509 2 81.6125 85.7906 -5.55112e-17
510 2 69.2144 53.0744 -5.55112e-17
511 1 73.3491 19.6409 -5.55112e-17
512 2 63.5212 182.257 -5.55112e-17
513 1 124.776 216.026 -5.55112e-17
514 1 135.125 123.317 -5.55112e-17
515 1 16.0845 81.6498 -5.55112e-17
516 1 26.407 108.025 -5.55112e-17
517 1 170.445 213.373 -5.55112e-17
518 2 213.317 192.991 -5.55112e-17
519 1 117.37 166.313 -5.55112e-17
520 2 184.784 213.405 -5.55112e-17
521 1 203.606 151.506 -5.55112e-17
522 1 98.6861 18.4744 -5.55112e-17
523 1 179.971 48.413 -5.55112e-17
524 1 14.7418 120.241 -5.55112e-17
525 1 170.029 184.112 -5.55112e-17
526 1 117.417 97.7241 -5.55112e-17
527 1 174.516 98.0566 -5.55112e-17
528 1 44.7986 115.379 -5.55112e-17
529 1 75.4814 203.832 -5.55112e-17
530 1 28.7572 51.0006 -5.55112e-17
531 1 172.468 124.805 -5.55112e-17
532 1 4.66236 210.213 -5.55112e-17
533 1 204.81 102.192 -5.55112e-17
534 1 7.72532 52.5549 -5.55112e-17
535 1 160.388 201.524 -5.55112e-17
536 1 147.823 131.871 -5.55112e-17
537 1 218.642 53.7656 -5.55112e-17
538 1 56.5423 216.68 -5.55112e-17
539 1 197.051 124.833 -5.55112e-17
540 1 3.39744 177.345 -5.55112e-17
541 1 31.7939 24.4032 -5.55112e-17
542 1 179.126 98.1432 -5.55112e-17
543 1 18.3442 106.298 -5.55112e-17
544 1 212.819 48.7882 -5.55112e-17
545 1 87.0859 190.013 -5.55112e-17
546 1 37.9488 75.4601 -5.55112e-17
547 1 147.286 21.1482 -5.55112e-17
548 1 202.603 184.015 -5.55112e-17
549 1 61.3256 156.762 -5.55112e-17
550 2 137.177 96.8083 -5.55112e-17
551 2 60.0681 216.69 -5.55112e-17
552 2 142.741 24.7899 -5.55112e-17
553 1 80.5697 93.2954 -5.55112e-17
554 1 190.167 213.053 -5.55112e-17
555 2 64.2111 193.985 -5.55112e-17
556 1 201.62 202.209 -5.55112e-17
557 1 124.671 28.597 -5.55112e-17
558 1 206.688 8.70186 -5.55112e-17
559 1 106.913 162.719 -5.55112e-17
560 1 35.4613 8.23112 -5.55112e-17
561 1 187.783 33.2489 -5.55112e-17
562 1 9.85583 141.16 -5.55112e-17
563 2 215.66 119.455 -5.55112e-17
564 1 56.3949 124.874 -5.55112e-17
565 1 66.7012 74.2583 -5.55112e-17
566 1 53.3242 137.331 -5.55112e-17
567 1 163.224 102.57 -5.55112e-17
568 1 36.6624 133.643 -5.55112e-17
569 1 28.3326 106.154 -5.55112e-17
570 1 184.35 11.2947 -5.55112e-17
571 1 190.936 148.5 -5.55112e-17
572 1 70.9457 121.678 -5.55112e-17
573 1 28.3622 40.6885 -5.55112e-17
574 1 215.47 215.576 -5.55112e-17
575 1 71.2989 91.6762 -5.55112e-17
576 1 13.3108 138.332 -5.55112e-17
577 1 185.95 3.83613 -5.55112e-17
578 1 138.92 68.2973 -5.55112e-17
579 1 171.644 208.414 -5.55112e-17
580 1 115.314 206.9 -5.55112e-17
581 1 91.2647 50.4153 -5.55112e-17
582 1 50.0135 55.2251 -5.55112e-17
583 1 163.833 149.932 -5.55112e-17
584 2 82.3625 47.1744 -5.55112e-17
585 1 169.736 215.807 -5.55112e-17
586 1 92.4746 208.1 -5.55112e-17
587 1 185.01 33.7536 -5.55112e-17
588 1 150.011 137.148 -5.55112e-17
589 1 98.6027 171.204 -5.55112e-17
590 1 36.1619 197.315 -5.55112e-17
591 1 25.9846 21.6827 -5.55112e-17
592 1 116.071 179.745 -5.55112e-17
593 1 64.4534 65.7673 -5.55112e-17
594 1 150.841 74.5831 -5.55112e-17
595 1 133.758 205.861 -5.55112e-17
596 1 184.93 46.1991 -5.55112e-17
597 2 80.4208 107.92 -5.55112e-17
598 1 198.258 169.707 -5.55112e-17
599 1 180.312 70.9114 -5.55112e-17
600 1 74.628 115.364 -5.55112e-17
601 1 157.574 21.633 -5.55112e-17
602 1 115.212 218.66 -5.55112e-17
603 1 154.282 172.815 -5.55112e-17
604 1 3.025 56.94 -5.55112e-17
605 2 185.27 57.3529 -5.55112e-17
606 1 214.48 122.474 -5.55112e-17
607 2 113.525 38.2363 -5.55112e-17
608 1 123.054 16.1508 -5.55112e-17
609 1 165.251 196.391 -5.55112e-17
610 1 115.365 47.6439 -5.55112e-17
611 1 180.58 168.423 -5.55112e-17
612 1 20.8233 176.353 -5.55112e-17
613 1 3.01004 96.0665 -5.55112e-17
614 2 116.518 24.0212 -5.55112e-17
615 1 8.97668 62.6485 -5.55112e-17
616 1 161.842 120.732 -5.55112e-17
617 1 123.51 24.0501 -5.55112e-17
618 1 56.7262 94.7277 -5.55112e-17
619 1 33.7891 100.037 -5.55112e-17
620 1 197.672 215.884 -5.55112e-17
621 1 55.2816 204.712 -5.55112e-17
622 1 32.0023 212.878 -5.55112e-17
623 1 0.77508 2.27958 -5.55112e-17
624 1 173.472 119.929 -5.55112e-17
625 1 129.74 213.21 -5.55112e-17
626 1 215.594 35.2456 -5.55112e-17
627 1 32.8924 124.646 -5.55112e-17
628 1 217.331 28.6598 -5.55112e-17
629 1 76.1866 39.6682 -5.55112e-17
630 2 125.845 88.4145 -5.55112e-17
631 1 25.9848 77.2733 -5.55112e-17
632 1 3.26815 93.25 -5.55112e-17
633 1 119.517 154.529 -5.55112e-17
634 1 206.146 16.749 -5.55112e-17
635 1 78.3273 147.35 -5.55112e-17
636 1 156.814 75.5795 -5.55112e-17
637 1 149.744 62.5979 -5.55112e-17
638 1 5.72024 196.201 -5.55112e-17
639 2 78.7146 204.86 -5.55112e-17
640 1 136.736 157.897 -5.55112e-17
641 1 132.118 38.5281 -5.55112e-17
642 1 47.8433 50.0328 -5.55112e-17
643 2 31.6519 145.151 -5.55112e-17
644 1 25.6417 105.734 -5.55112e-17
645 1 102.162 207.209 -5.55112e-17
646 2 140.547 167.126 -5.55112e-17
647 1 155.364 125.618 -5.55112e-17
648 1 205.554 208.317 -5.55112e-17
649 2 113.946 26.6947 -5.55112e-17
650 1 24.1183 39.5449 -5.55112e-17
651 1 67.4515 168.088 -5.55112e-17
652 1 24.7262 96.9893 -5.55112e-17
653 1 109.102 215.595 -5.55112e-17
654 1 218.776 9.5843 -5.55112e-17
655 2 108.868 38.399 -5.55112e-17
656 1 207.593 34.0456 -5.55112e-17
657 2 163.344 137.377 -5.55112e-17
658 1 205.649 94.2949 -5.55112e-17
659 2 157.275 97.2338 -5.55112e-17
660 1 167.601 94.5668 -5.55112e-17
661 1 159.951 106.622 -5.55112e-17
662 1 41.677 100.599 -5.55112e-17
663 1 112.211 153.486 -5.55112e-17
664 1 3.30469 85.2201 -5.55112e-17
665 1 212.066 25.635 -5.55112e-17
666 2 50.6017 37.6106 -5.55112e-17
667 1 76.388 129.935 -5.55112e-17
668 2 5.49388 10.0373 -5.55112e-17
669 1 177.184 91.4922 -5.55112e-17
670 1 163.727 110.282 -5.55112e-17
671 2 214.792 206.069 -5.55112e-17
672 1 13.0699 87.7657 -5.55112e-17
673 1 132.548 34.3979 -5.55112e-17
674 1 62.1449 32.8862 -5.55112e-17
675 1 40.1872 109.326 -5.55112e-17
676 1 134.21 32.8065 -5.55112e-17
677 1 90.6355 206.475 -5.55112e-17
678 1 46.4555 157.62 -5.55112e-17
679 2 64.3523 1.83533 -5.55112e-17
680 1 21.8287 178.525 -5.55112e-17
681 2 188.227 53.6542 -5.55112e-17
682 1 146.419 4.19247 -5.55112e-17
683 1 82.6792 134.004 -5.55112e-17
684 1 46.237 35.5353 -5.55112e-17
685 1 188.073 144.466 -5.55112e-17
686 1 5.11563 97.3623 -5.55112e-17
687 1 215.853 159.399 -5.55112e-17
688 1 53.4982 156.492 -5.55112e-17
689 2 15.2027 100.843 -5.55112e-17
690 1 142.237 157.655 -5.55112e-17
691 1 31.788 63.9805 -5.55112e-17
692 1 3.18225 125.78 -5.55112e-17
693 1 12.5245 146.078 -5.55112e-17
694 1 155.625 184.39 -5.55112e-17
695 1 34.3429 1.46504 -5.55112e-17
696 1 169.866 13.042 -5.55112e-17
697 1 172.469 142.056 -5.55112e-17
698 1 218.334 208.951 -5.55112e-17
699 1 182.147 161.227 -5.55112e-17
700 1 31.8962 152.065 -5.55112e-17
701 1 73.5858 202.024 -5.55112e-17
702 1 74.9045 69.8577 -5.55112e-17
703 2 129.9 165.621 -5.55112e-17
704 1 51.1597 29.9255 -5.55112e-17
705 2 105.325 99.6017 -5.55112e-17
706 1 29.6342 102.162 -5.55112e-17
707 1 19.4614 208.212 -5.55112e-17
708 1 182.264 138.669 -5.55112e-17
709 1 143.5 181.341 -5.55112e-17
710 1 80.396 42.6351 -5.55112e-17
711 1 105.341 143.019 -5.55112e-17
712 1 143.113 201.856 -5.55112e-17
713 1 179.98 175.867 -5.55112e-17
714 1 154.325 122.508 -5.55112e-17
715 1 124.952 37.3384 -5.55112e-17
716 1 41.8876 86.4747 -5.55112e-17
717 1 140.967 41.8111 -5.55112e-17
718 1 11.2727 58.4671 -5.55112e-17
719 2 190.356 87.0148 -5.55112e-17
720 1 207.266 25.6775 -5.55112e-17
721 1 171.571 43.6769 -5.55112e-17
722 1 105.025 203.254 -5.55112e-17
723 2 149.892 50.5357 -5.55112e-17
724 1 122.387 215.375 -5.55112e-17
725 1 27.0143 172.741 -5.55112e-17
726 1 203.36 172.2 -5.55112e-17
727 1 115.736 85.8549 -5.55112e-17
728 2 73.3814 106.486 -5.55112e-17
729 1 15.9681 58.0417 -5.55112e-17
730 1 58.8362 4.47336 -5.55112e-17
731 1 13.2777 210.612 -5.55112e-17
732 1 171.353 71.0808 -5.55112e-17
733 1 192.886 127.724 -5.55112e-17
734 1 81.6447 166.771 -5.55112e-17
735 1 64.9676 148.192 -5.55112e-17
736 2 4.77975 151.952 -5.55112e-17
737 1 11.3983 46.6088 -5.55112e-17
738 1 134.544 5.67506 -5.55112e-17
739 1 177.398 48.1414 -5.55112e-17
740 1 6.68868 162.427 -5.55112e-17
741 2 143.965 190.66 -5.55112e-17
742 1 9.6058 218.945 -5.55112e-17
743 1 191.708 92.3022 -5.55112e-17
744 2 31.5211 135.537 -5.55112e-17
745 1 5.8379 70.2518 -5.55112e-17
746 1 91.0291 70.1325 -5.55112e-17
747 2 140.437 129.728 -5.55112e-17
748 1 85.8738 33.269 -5.55112e-17
749 1 117.347 142.085 -5.55112e-17
750 1 78.6808 51.9132 -5.55112e-17
751 1 43.0352 11.8729 -5.55112e-17
752 1 171.26 1.08552 -5.55112e-17
753 1 142.613 193.456 -5.55112e-17
754 1 76.3033 213.272 -5.55112e-17
755 1 165.804 148.228 -5.55112e-17
756 2 214.528 131.036 -5.55112e-17
757 1 61.4935 93.6645 -5.55112e-17
758 1 17.2263 33.0067 -5.55112e-17
759 1 111.186 177.793 -5.55112e-17
760 1 152.792 0.432864 -5.55112e-17
761 1 151.072 127.476 -5.55112e-17
762 1 41.6624 2.16005 -5.55112e-17
763 1 216.278 9.14475 -5.55112e-17
764 2 142.989 90.6983 -5.55112e-17
765 1 168.278 91.341 -5.55112e-17
766 1 157.828 179.74 -5.55112e-17
767 1 71.6945 150.461 -5.55112e-17
768 1 126.367 45.0603 -5.55112e-17
769 1 167.213 43.2455 -5.55112e-17
770 2 38.6959 31.3745 -5.55112e-17
771 1 131.157 43.163 -5.55112e-17
772 1 184.34 182.899 -5.55112e-17
773 1 176.454 165.095 -5.55112e-17
774 1 38.8602 125.673 -5.55112e-17
775 1 30.9924 68.6886 -5.55112e-17
776 1 61.527 169.364 -5.55112e-17
777 1 131.625 102.207 -5.55112e-17
778 1 59.7375 125.206 -5.55112e-17
779 1 147.884 168.594 -5.55112e-17
780 1 42.1893 206.969 -5.55112e-17
781 1 189.357 80.2944 -5.55112e-17
782 1 149.068 109.818 -5.55112e-17
783 1 211.166 105.407 -5.55112e-17
784 2 153.77 202.641 -5.55112e-17
785 1 120.24 87.1688 -5.55112e-17
786 1 212.822 100.307 -5.55112e-17
787 1 59.8089 66.8595 -5.55112e-17
788 1 170.388 84.1092 -5.55112e-17
789 2 171.592 109.337 -5.55112e-17
790 1 155.229 1.13503 -5.55112e-17
791 2 6.31368 78.3043 -5.55112e-17
792 2 173.819 159.7 -5.55112e-17
793 2 215.075 26.8535 -5.55112e-17
794 1 149.908 86.2619 -5.55112e-17
795 1 192.502 142.324 -5.55112e-17
796 1 191.989 182.85 -5.55112e-17
797 1 40.2065 114.319 -5.55112e-17
798 2 39.2926 65.9836 -5.55112e-17
799 2 130.701 9.03312 -5.55112e-17
800 2 177.423 175.831 -5.55112e-17
801 1 185.211 216.22 -5.55112e-17
802 1 186.897 11.809 -5.55112e-17
803 1 61.2462 35.5573 -5.55112e-17
804 2 199.665 139.366 -5.55112e-17
805 1 102.87 142.058 -5.55112e-17
806 1 30.6786 215.01 -5.55112e-17
807 2 216.131 183.403 -5.55112e-17
808 1 18.8272 121.404 -5.55112e-17
809 2 66.2195 206.241 -5.55112e-17
810 1 22.5051 118.842 -5.55112e-17
811 1 131.59 196.17 -5.55112e-17
812 1 112.606 218.026 -5.55112e-17
813 2 35.7019 49.2925 -5.55112e-17
814 1 41.3084 214.17 -5.55112e-17
815 1 17.9226 53.7427 -5.55112e-17
816 1 178.507 201.716 -5.55112e-17
817 1 145.608 10.9207 -5.55112e-17
818 1 98.6204 30.6917 -5.55112e-17
819 1 49.4816 40.1699 -5.55112e-17
820 1 52.0969 114.535 -5.55112e-17
821 1 175.877 178.676 -5.55112e-17
822 2 14.2689 46.6145 -5.55112e-17
823 2 127.694 26.2469 -5.55112e-17
824 1 34.0958 10.319 -5.55112e-17
825 1 194.655 204.61 -5.55112e-17
826 1 105.484 175.544 -5.55112e-17
827 1 28.6357 135.451 -5.55112e-17
828 1 20.4457 66.3397 -5.55112e-17
829 1 148.081 203.103 -5.55112e-17
830 1 187.562 1.76381 -5.55112e-17
831 1 50.3648 205.869 -5.55112e-17
832 1 54.3583 19.5057 -5.55112e-17
833 1 32.3328 207.999 -5.55112e-17
834 1 68.387 199.062 -5.55112e-17
835 1 16.3315 73.5355 -5.55112e-17
836 1 35.4735 76.8466 -5.55112e-17
837 1 57.1178 37.8703 -5.55112e-17
838 1 45.2173 28.1671 -5.55112e-17
839 2 179.429 45.4475 -5.55112e-17
840 1 77.3945 115.641 -5.55112e-17
841 2 103.035 63.1451 -5.55112e-17
842 1 12.5519 197.787 -5.55112e-17
843 2 189.182 83.6571 -5.55112e-17
844 1 185.744 142.83 -5.55112e-17
845 1 157.704 166.095 -5.55112e-17
846 1 77.9906 44.8948 -5.55112e-17
847 1 172.761 106.751 -5.55112e-17
848 1 199.842 42.6084 -5.55112e-17
849 1 154.792 107.352 -5.55112e-17
850 1 103.823 24.6567 -5.55112e-17
851 1 98.2772 52.8428 -5.55112e-17
852 1 182.218 37.2251 -5.55112e-17
853 1 100.912 17.4747 -5.55112e-17
854 1 10.0835 151.114 -5.55112e-17
855 1 188.842 200.674 -5.55112e-17
856 1 202.901 75.4281 -5.55112e-17
857 1 173.33 156.855 -5.55112e-17