ITEM: TIMESTEP
0
ITEM: NUMBER OF ATOMS
7200
ITEM: BOX BOUNDS xy xz yz pp pp pp
0.0000000000000000e+00 2.1900000000000000e+02 0.0000000000000000e+00
0.0000000000000000e+00 2.1900000000000000e+02 0.0000000000000000e+00
-3.6499999999999999e-01 3.6499999999999999e-01 0.0000000000000000e+00
ITEM: ATOMS id type x y z
1 1 69.2243 133.23 -5.55112e-17
2 1 192.446 107.031 -5.55112e-17
3 1 12.5462 163.291 -5.55112e-17
4 1 21.3016 81.8567 -5.55112e-17
5 1 2.33967 160.94 -5.55112e-17
6 1 136.018 0.204846 -5.55112e-17
7 1 48.3312 42.8671 -5.55112e-17
8 2 150.649 83.1155 -5.55112e-17
9 1 208.655 7.22882 -5.55112e-17
10 2 60.4975 187.961 -5.55112e-17
11 1 125.133 193.955 -5.55112e-17
12 1 141.134 97.4781 -5.55112e-17
13 2 50.8362 79.1671 -5.55112e-17
14 1 66.3724 17.807 -5.55112e-17
15 1 141.224 94.6281 -5.55112e-17
16 2 54.5063 176.039 -5.55112e-17
17 1 115.811 33.16 -5.55112e-17
18 2 35.6492 65.1841 -5.55112e-17
19 1 103.578 57.3429 -5.55112e-17
20 1 148.927 115.49 -5.55112e-17
21 1 42.4049 5.8648 -5.55112e-17
22 2 48.5945 137.203 -5.55112e-17
23 2 12.2862 57.9538 -5.55112e-17
24 1 150.806 104.356 -5.55112e-17
25 1 76.2086 186.515 -5.55112e-17
26 2 86.5908 97.2969 -5.55112e-17
27 1 160.579 185.255 -5.55112e-17
28 2 19.39 156.216 -5.55112e-17
29 1 58.2006 59.1445 -5.55112e-17
30 1 151.014 100.062 -5.55112e-17
31 1 210.628 90.3515 -5.55112e-17
32 1 50.3994 113.108 -5.55112e-17
33 1 167.983 149.973 -5.55112e-17
34 1 53.0201 63.9112 -5.55112e-17
35 1 176.078 69.1587 -5.55112e-17
36 1 54.8093 82.0589 -5.55112e-17
37 2 138.369 141.751 -5.55112e-17
38 1 196.808 75.1346 -5.55112e-17
39 1 119.108 145.093 -5.55112e-17
40 1 166.278 166.869 -5.55112e-17
41 1 121.208 182.396 -5.55112e-17
42 1 95.4385 42.2801 -5.55112e-17
43 1 142.522 68.4307 -5.55112e-17
44 1 107.51 27.1393 -5.55112e-17
45 1 213.503 82.1862 -5.55112e-17
46 1 32.6071 203.034 -5.55112e-17
47 1 88.6875 172.395 -5.55112e-17
48 2 57.6348 76.8522 -5.55112e-17
49 1 69.8924 125.931 -5.55112e-17
50 1 42.5799 192.474 -5.55112e-17
51 1 181.079 35.0213 -5.55112e-17
52 1 205.041 128.625 -5.55112e-17
53 1 155.857 43.2233 -5.55112e-17
54 1 29.0225 138.889 -5.55112e-17
55 1 20.4155 40.4558 -5.55112e-17
56 1 117.932 139.839 -5.55112e-17
57 2 69.6502 209.355 -5.55112e-17
58 1 40.4741 41.4762 -5.55112e-17
59 1 17.7883 137.875 -5.55112e-17
60 2 149.838 148.179 -5.55112e-17
61 2 42.2135 195.486 -5.55112e-17
62 1 14.4614 165.148 -5.55112e-17
63 1 114.132 197.316 -5.55112e-17
64 1 134.046 38.8025 -5.55112e-17
65 1 216.94 117.34 -5.55112e-17
66 1 125.066 138.845 -5.55112e-17
67 1 95.9904 139.59 -5.55112e-17
68 1 63.8184 117.296 -5.55112e-17
69 1 142.873 177.188 -5.55112e-17
70 1 53.5056 107.252 -5.55112e-17
71 1 218.608 122.353 -5.55112e-17
72 1 171.206 60.8459 -5.55112e-17
73 1 187.821 186.12 -5.55112e-17
74 1 206.231 22.5427 -5.55112e-17
75 2 94.2641 1.22479 -5.55112e-17
76 1 18.4592 5.00898 -5.55112e-17
77 1 46.5546 28.4421 -5.55112e-17
78 1 116.419 101.737 -5.55112e-17
79 2 115.326 3.64783 -5.55112e-17
80 1 78.7955 107.456 -5.55112e-17
81 1 110.908 141.184 -5.55112e-17
82 1 55.9296 135.748 -5.55112e-17
83 2 129.988 182.298 -5.55112e-17
84 1 177.238 80.1218 -5.55112e-17
85 1 33.7257 43.4622 -5.55112e-17
86 1 130.574 140.742 -5.55112e-17
87 1 15.5627 0.744044 -5.55112e-17
88 1 27.2795 47.5374 -5.55112e-17
89 2 44.477 4.03185 -5.55112e-17
90 2 190.432 187.74 -5.55112e-17
91 1 148.126 99.9992 -5.55112e-17
92 2 165.202 18.5465 -5.55112e-17
93 1 142.174 25.3996 -5.55112e-17
94 2 203.681 13.018 -5.55112e-17
95 1 41.6506 204.957 -5.55112e-17
96 1 149.142 87.5148 -5.55112e-17
97 1 94.9569 213.19 -5.55112e-17
98 1 119.5 50.3558 -5.55112e-17
99 1 171.936 23.289 -5.55112e-17
100 1 176.014 7.26628 -5.55112e-17
101 1 128.039 3.24493 -5.55112e-17
102 1 18.533 42.5375 -5.55112e-17
103 1 60.4586 73.015 -5.55112e-17
104 1 65.5489 124.386 -5.55112e-17
105 1 144.996 203.289 -5.55112e-17
106 1 76.6 98.336 -5.55112e-17
107 2 158.44 111.156 -5.55112e-17
108 1 36.9714 211.036 -5.55112e-17
109 1 32.2034 84.56 -5.55112e-17
110 1 96.5997 60.9573 -5.55112e-17
111 1 62.0771 20.476 -5.55112e-17
112 1 95.1102 137.17 -5.55112e-17
113 1 103.532 50.4648 -5.55112e-17
114 1 159.69 31.4006 -5.55112e-17
115 1 61.422 170.024 -5.55112e-17
116 2 216.47 134.015 -5.55112e-17
117 1 200.278 217.145 -5.55112e-17
118 1 164.419 68.4224 -5.55112e-17
119 2 73.0273 108.723 -5.55112e-17
120 1 49.9136 201.689 -5.55112e-17
121 1 157.668 73.044 -5.55112e-17
122 1 103.188 12.539 -5.55112e-17
123 1 136.765 99.9373 -5.55112e-17
124 1 154.92 197.361 -5.55112e-17
125 1 138.468 138.936 -5.55112e-17
126 1 101.698 55.7635 -5.55112e-17
127 1 152.992 87.2987 -5.55112e-17
128 1 175.673 137.184 -5.55112e-17
129 1 8.18127 102.497 -5.55112e-17
130 1 85.9605 129.755 -5.55112e-17
131 1 175.716 153.17 -5.55112e-17
132 2 179.52 0.623529 -5.55112e-17
133 1 116.48 79.5855 -5.55112e-17
134 1 12.1325 96.5187 -5.55112e-17
135 1 78.9987 8.23558 -5.55112e-17
136 1 209.376 207.564 -5.55112e-17
137 1 102.194 136.594 -5.55112e-17
138 1 50.53 212.682 -5.55112e-17
139 1 205.62 111.49 -5.55112e-17
140 2 143.404 181.805 -5.55112e-17
141 1 198.281 89.987 -5.55112e-17
142 2 211.322 49.4506 -5.55112e-17
143 1 110.156 81.4157 -5.55112e-17
144 2 45.4331 193.713 -5.55112e-17
145 1 183.69 107.757 -5.55112e-17
146 1 104.657 116.862 -5.55112e-17
147 1 137.504 144.46 -5.55112e-17
148 1 0.478079 203.438 -5.55112e-17
149 1 69.1508 21.1155 -5.55112e-17
150 1 45.6897 38.4676 -5.55112e-17
151 1 22.223 112.806 -5.55112e-17
152 1 54.747 109.31 -5.55112e-17
153 2 52.6362 6.40661 -5.55112e-17
154 1 136.768 122.671 -5.55112e-17
155 1 107.486 213.785 -5.55112e-17
156 2 70.2544 118.622 -5.55112e-17
157 1 208.011 105.207 -5.55112e-17
158 1 39.8114 25.1766 -5.55112e-17
159 1 10.1108 141.986 -5.55112e-17
160 1 14.0892 203.545 -5.55112e-17
161 1 14.0049 4.78266 -5.55112e-17
162 1 140.164 143.805 -5.55112e-17
163 1 28.7236 35.2036 -5.55112e-17
164 1 166.231 53.3396 -5.55112e-17
165 1 131.235 127.614 -5.55112e-17
166 2 159.276 60.7699 -5.55112e-17
167 1 174.855 47.2355 -5.55112e-17
168 1 148.833 169.047 -5.55112e-17
169 1 1.6506 100.925 -5.55112e-17
170 1 94.6994 168.106 -5.55112e-17
171 1 149.787 63.4269 -5.55112e-17
172 1 217.524 18.046 -5.55112e-17
173 1 42.6975 142.854 -5.55112e-17
174 1 138.08 61.204 -5.55112e-17
175 2 137.827 160.561 -5.55112e-17
176 1 104.724 67.6021 -5.55112e-17
177 2 77.8058 55.1789 -5.55112e-17
178 1 67.6659 85.1979 -5.55112e-17
179 1 173.445 163.77 -5.55112e-17
180 1 203.304 197.851 -5.55112e-17
181 1 134.705 167.296 -5.55112e-17
182 2 78.2421 20.7522 -5.55112e-17
183 1 72.6549 161.199 -5.55112e-17
184 1 175.376 87.305 -5.55112e-17
185 2 184.208 11.6716 -5.55112e-17
186 2 206.855 133.693 -5.55112e-17
187 1 93.8995 29.3195 -5.55112e-17
188 1 102.489 170.109 -5.55112e-17
189 1 123.678 175.226 -5.55112e-17
190 2 14.2364 168.259 -5.55112e-17
191 1 71.5619 155.255 -5.55112e-17
192 2 62.3577 125.606 -5.55112e-17
193 2 76.0048 172.064 -5.55112e-17
194 1 23.625 140.75 -5.55112e-17
195 1 145.805 165.672 -5.55112e-17
196 1 168.579 191.756 -5.55112e-17
197 1 73.8701 70.461 -5.55112e-17
198 2 19.1123 132.927 -5.55112e-17
199 1 209.533 58.904 -5.55112e-17
200 1 81.0756 6.6896 -5.55112e-17
201 2 78.3535 110.382 -5.55112e-17
202 1 52.9027 211.189 -5.55112e-17
203 1 174.981 81.9719 -5.55112e-17
204 1 188.664 157.265 -5.55112e-17
205 2 190.969 83.5044 -5.55112e-17
206 1 89.5176 133.205 -5.55112e-17
207 1 101.746 35.1052 -5.55112e-17
208 1 25.8866 64.9374 -5.55112e-17
209 1 82.7945 2.68662 -5.55112e-17
210 1 12.0841 67.4769 -5.55112e-17
211 2 142.575 157.431 -5.55112e-17
212 1 113.775 117.467 -5.55112e-17
213 1 146.336 91.376 -5.55112e-17
214 1 75.2431 13.9147 -5.55112e-17
215 1 75.4194 202.018 -5.55112e-17
216 1 193.771 139.356 -5.55112e-17
217 1 126.489 184.923 -5.55112e-17
218 2 32.1711 168.708 -5.55112e-17
219 1 155.694 209.551 -5.55112e-17
220 2 106.369 58.6946 -5.55112e-17
221 1 209.954 61.7704 -5.55112e-17
222 1 149.355 133.882 -5.55112e-17
223 1 53.1187 208.613 -5.55112e-17
224 2 10.6073 189.443 -5.55112e-17
225 1 191.999 137.509 -5.55112e-17
226 1 141.076 186.931 -5.55112e-17
227 2 51.6062 17.1408 -5.55112e-17
228 1 131.414 109.521 -5.55112e-17
229 1 71.3422 128.244 -5.55112e-17
230 1 158.966 133.226 -5.55112e-17
231 1 142.443 125.387 -5.55112e-17
232 1 214.506 77.1604 -5.55112e-17
233 1 104.002 97.4391 -5.55112e-17
234 1 120.263 211.562 -5.55112e-17
235 1 28.9363 151.662 -5.55112e-17
236 1 37.994 86.0623 -5.55112e-17
237 1 195.868 216.01 -5.55112e-17
238 1 149.073 127.805 -5.55112e-17
239 2 19.4796 113.472 -5.55112e-17
240 1 98.2867 7.63221 -5.55112e-17
241 2 177.161 21.2759 -5.55112e-17
242 2 198.156 37.6829 -5.55112e-17
243 2 118.936 21.7921 -5.55112e-17
244 1 100.412 8.96556 -5.55112e-17
245 1 82.4856 56.6831 -5.55112e-17
246 1 128.728 126.861 -5.55112e-17
247 1 210.67 98.5036 -5.55112e-17
248 1 95.0928 4.09867 -5.55112e-17
249 1 18.3559 65.0126 -5.55112e-17
250 2 150.48 35.2937 -5.55112e-17
251 1 154.501 212.159 -5.55112e-17
252 1 194.541 65.2552 -5.55112e-17
253 1 99.1402 59.5342 -5.55112e-17
254 2 77.1691 197.75 -5.55112e-17
255 1 208.93 149.392 -5.55112e-17
256 1 84.4782 165.734 -5.55112e-17
257 1 211.147 151.209 -5.55112e-17
258 2 169.061 28.1194 -5.55112e-17
259 1 56.6877 161.306 -5.55112e-17
260 1 131.538 6.99039 -5.55112e-17
261 1 185.54 9.0526 -5.55112e-17
262 1 40.3429 68.6416 -5.55112e-17
263 1 16.4002 217.377 -5.55112e-17
264 1 172.337 43.0878 -5.55112e-17
265 1 164.354 28.3737 -5.55112e-17
266 1 143.623 7.22276 -5.55112e-17
267 1 6.97267 62.023 -5.55112e-17
268 1 26.88 45.1905 -5.55112e-17
269 1 123.808 99.7466 -5.55112e-17
270 1 134.486 96.6598 -5.55112e-17
271 1 14.6178 90.2778 -5.55112e-17
272 1 159.876 199.978 -5.55112e-17
273 1 47.6542 169.284 -5.55112e-17
274 2 114.192 88.5374 -5.55112e-17
275 1 64.587 5.16935 -5.55112e-17
276 2 54.6245 30.7939 -5.55112e-17
277 2 172.824 123.697 -5.55112e-17
278 1 53.2933 84.2312 -5.55112e-17
279 2 107.68 218.619 -5.55112e-17
280 1 60.3229 31.1597 -5.55112e-17
281 1 150.994 25.0264 -5.55112e-17
282 1 161.338 8.36755 -5.55112e-17
283 1 113.44 141.263 -5.55112e-17
284 1 136.308 165.479 -5.55112e-17
285 1 36.3429 13.0254 -5.55112e-17
286 2 34.6115 215.455 -5.55112e-17
287 1 67.9788 135.473 -5.55112e-17
288 1 14.3805 55.6163 -5.55112e-17
289 1 76.6457 52.1787 -5.55112e-17
290 1 152.932 190.583 -5.55112e-17
291 1 156.846 140.926 -5.55112e-17
292 2 20.3198 181.735 -5.55112e-17
293 2 65.5657 194.31 -5.55112e-17
294 1 124.609 48.3942 -5.55112e-17
295 1 120.543 44.7816 -5.55112e-17
296 1 134.673 41.6509 -5.55112e-17
297 1 118.47 142.609 -5.55112e-17
298 1 111.976 196.273 -5.55112e-17
299 1 180.028 115.199 -5.55112e-17
300 2 65.9855 98.2095 -5.55112e-17
301 1 74.8371 56.6806 -5.55112e-17
302 1 125.129 188.891 -5.55112e-17
303 2 199.025 58.3854 -5.55112e-17
304 2 152.158 127.409 -5.55112e-17
305 1 86.0857 100.311 -5.55112e-17
306 1 50.7699 64.9147 -5.55112e-17
307 1 15.9893 95.4232 -5.55112e-17
308 1 161.578 59.2708 -5.55112e-17
309 2 70.157 185.207 -5.55112e-17
310 1 206.414 214.901 -5.55112e-17
311 1 80.3938 33.5407 -5.55112e-17
312 1 192.186 148.305 -5.55112e-17
313 2 142.617 71.1825 -5.55112e-17
314 1 46.6547 123.499 -5.55112e-17
315 1 111.286 150.336 -5.55112e-17
316 1 73.3318 0.987832 -5.55112e-17
317 1 33.919 104.168 -5.55112e-17
318 1 105.677 7.40419 -5.55112e-17
319 1 51.7992 30.7126 -5.55112e-17
320 1 138.233 77.0963 -5.55112e-17
321 1 92.7473 205.205 -5.55112e-17
322 1 147.774 139.558 -5.55112e-17
323 1 198.359 97.4201 -5.55112e-17
324 1 82.0018 27.1052 -5.55112e-17
325 1 162.377 139.184 -5.55112e-17
326 1 85.1203 151.564 -5.55112e-17
327 2 153.346 184.023 -5.55112e-17
328 1 169.837 38.948 -5.55112e-17
329 2 36.2682 106.764 -5.55112e-17
330 1 13.4378 117.157 -5.55112e-17
331 1 174.898 176.326 -5.55112e-17
332 2 110.661 101.163 -5.55112e-17
333 1 49.2426 19.0776 -5.55112e-17
334 1 137.867 170.878 -5.55112e-17
335 1 16.0615 205.214 -5.55112e-17
336 1 213.152 106.181 -5.55112e-17
337 1 103.293 181.792 -5.55112e-17
338 1 159.141 57.7898 -5.55112e-17
339 1 113.542 17.4931 -5.55112e-17
340 1 139.627 132.051 -5.55112e-17
341 1 167.707 177.459 -5.55112e-17
342 1 132.044 152.498 -5.55112e-17
343 1 126.812 20.5575 -5.55112e-17
344 1 43.4425 182.243 -5.55112e-17
345 1 61.4154 109.919 -5.55112e-17
346 1 9.19129 136.452 -5.55112e-17
347 1 92.1984 92.6838 -5.55112e-17
348 1 171.401 183.864 -5.55112e-17
349 1 191.88 76.6271 -5.55112e-17
350 2 88.5043 44.5259 -5.55112e-17
351 1 154.323 65.8994 -5.55112e-17
352 1 72.6367 167.93 -5.55112e-17
353 1 43.7203 167.197 -5.55112e-17
354 1 152.836 168.751 -5.55112e-17
355 1 62.9906 160.644 -5.55112e-17
356 1 35.7778 42.0497 -5.55112e-17
357 1 55.7595 164.112 -5.55112e-17
358 1 176.905 184.033 -5.55112e-17
359 1 165.073 156.886 -5.55112e-17
360 1 79.021 59.5909 -5.55112e-17
361 1 56.4078 178.481 -5.55112e-17
362 1 171.708 200.809 -5.55112e-17
363 1 160.859 197.629 -5.55112e-17
364 2 108.254 95.2809 -5.55112e-17
365 1 177.937 93.9464 -5.55112e-17
366 1 117.53 161.933 -5.55112e-17
367 1 178.128 8.34805 -5.55112e-17
368 1 196.672 193 -5.55112e-17
369 2 114.16 190.447 -5.55112e-17
370 1 7.81631 209.799 -5.55112e-17
371 1 61.2021 134.711 -5.55112e-17
372 2 219 93.0908 -5.55112e-17
373 2 209.317 12.8554 -5.55112e-17
374 1 145.68 99.2476 -5.55112e-17
375 1 35.0017 117.277 -5.55112e-17
376 1 9.9264 151.245 -5.55112e-17
377 1 29.4631 213.822 -5.55112e-17
378 1 75.2673 125.904 -5.55112e-17
379 1 38.6053 43.1054 -5.55112e-17
380 1 178.062 151.943 -5.55112e-17
381 1 18.0174 0.270936 -5.55112e-17
382 1 57.0599 61.5617 -5.55112e-17
383 1 169.22 67.6641 -5.55112e-17
384 1 22.0614 14.1405 -5.55112e-17
385 1 189.654 77.8886 -5.55112e-17
386 2 86.0999 41.1056 -5.55112e-17
387 1 148.543 9.7393 -5.55112e-17
388 1 75.0997 54.1061 -5.55112e-17
389 1 209.027 160.874 -5.55112e-17
390 2 207.469 180.564 -5.55112e-17
391 2 40.5566 38.7034 -5.55112e-17
392 1 42.0101 218.705 -5.55112e-17
393 1 218.634 33.9904 -5.55112e-17
394 1 104.991 105.89 -5.55112e-17
395 1 15.4157 27.0273 -5.55112e-17
396 1 204.095 151.061 -5.55112e-17
397 1 101.649 16.7973 -5.55112e-17
398 1 12.079 191.956 -5.55112e-17
399 1 31.0276 56.2574 -5.55112e-17
400 1 103.564 179.269 -5.55112e-17
401 1 87.6943 176.333 -5.55112e-17
402 2 191.392 179.833 -5.55112e-17
403 1 213.714 54.774 -5.55112e-17
404 1 42.0777 82.0626 -5.55112e-17
405 1 203.849 30.1275 -5.55112e-17
406 1 197.701 68.3316 -5.55112e-17
407 2 17.5757 62.209 -5.55112e-17
408 1 41.3788 35.6243 -5.55112e-17
409 1 160.558 122.799 -5.55112e-17
410 1 16.7818 166.677 -5.55112e-17
411 1 151.276 160.537 -5.55112e-17
412 1 106.663 216.102 -5.55112e-17
413 1 70.655 163.102 -5.55112e-17
414 1 38.5139 14.3225 -5.55112e-17
415 1 206.585 150.262 -5.55112e-17
416 1 68.6481 202.109 -5.55112e-17
417 1 159.008 80.3808 -5.55112e-17
418 2 181.16 6.42141 -5.55112e-17
419 1 108.879 149.706 -5.55112e-17
420 2 153.915 99.6932 -5.55112e-17
421 1 87.8953 103.939 -5.55112e-17
422 1 176.848 26.7621 -5.55112e-17
423 2 159.953 39.5765 -5.55112e-17
424 1 141.07 133.795 -5.55112e-17
425 1 128.964 166.981 -5.55112e-17
426 1 145.888 111.966 -5.55112e-17
427 1 56.1831 84.479 -5.55112e-17
428 1 72.076 198.599 -5.55112e-17
429 1 193.732 83.9804 -5.55112e-17
430 1 217.146 62.2664 -5.55112e-17
431 1 134.728 211.155 -5.55112e-17
432 1 161.387 53.9857 -5.55112e-17
433 1 104.987 153.925 -5.55112e-17
434 1 72.3463 29.7331 -5.55112e-17
435 1 178.189 162.14 -5.55112e-17
436 1 36.2966 33.6261 -5.55112e-17
437 1 186.157 100.829 -5.55112e-17
438 2 115.289 26.3174 -5.55112e-17
439 1 62.8875 206.796 -5.55112e-17
440 1 4.49122 163.383 -5.55112e-17
441 1 190.038 133.453 -5.55112e-17
442 1 54.5297 17.022 -5.55112e-17
443 1 163.951 100.029 -5.55112e-17
444 1 218.27 100.251 -5.55112e-17
445 1 139.146 212.324 -5.55112e-17
446 1 164.331 97.2634 -5.55112e-17
447 1 44.2451 150.942 -5.55112e-17
448 1 76.6697 7.31752 -5.55112e-17
449 1 120.304 132.507 -5.55112e-17
450 1 144.408 193.719 -5.55112e-17
451 1 170.358 47.3214 -5.55112e-17
452 1 132.591 142.963 -5.55112e-17
453 1 179.184 182.743 -5.55112e-17
454 1 159.466 211.577 -5.55112e-17
455 1 99.3889 72.1868 -5.55112e-17
456 1 162.253 32.5199 -5.55112e-17
457 1 95.0832 114.372 -5.55112e-17
458 1 191.728 6.23082 -5.55112e-17
459 1 80.5687 70.0173 -5.55112e-17
460 1 40.045 83.9865 -5.55112e-17
461 1 188.742 178.553 -5.55112e-17
462 1 181.237 102.69 -5.55112e-17
463 1 121.953 26.1039 -5.55112e-17
464 1 156.974 192.792 -5.55112e-17
465 1 121.436 160.147 -5.55112e-17
466 1 23.9638 212.058 -5.55112e-17
467 1 22.3797 76.7735 -5.55112e-17
468 1 159.253 218.359 -5.55112e-17
469 1 60.8023 83.5546 -5.55112e-17
470 1 78.541 37.7207 -5.55112e-17
471 1 129.106 174.726 -5.55112e-17
472 1 50.9116 95.5212 -5.55112e-17
473 1 39.5893 117.457 -5.55112e-17
474 1 88.3381 101.548 -5.55112e-17
475 1 185.296 164.195 -5.55112e-17
476 2 185.537 14.7961 -5.55112e-17
477 1 51.0894 98.0187 -5.55112e-17
478 1 37.5214 116.119 -5.55112e-17
479 1 200.646 80.8506 -5.55112e-17
480 1 86.0154 24.021 -5.55112e-17
481 1 7.57501 99.9608 -5.55112e-17
482 1 99.4626 159.747 -5.55112e-17
483 1 145.071 163.173 -5.55112e-17
484 2 83.9125 48.098 -5.55112e-17
485 1 32.0605 92.1203 -5.55112e-17
486 1 82.501 17.2424 -5.55112e-17
487 1 104.047 197.767 -5.55112e-17
488 1 14.0757 119.64 -5.55112e-17
489 1 8.38345 126.272 -5.55112e-17
490 1 206.765 84.9116 -5.55112e-17
491 1 203.618 112.775 -5.55112e-17
492 1 8.99435 134.015 -5.55112e-17
493 1 197.016 4.8998 -5.55112e-17
494 1 210.729 38.8832 -5.55112e-17
495 1 198.696 92.45 -5.55112e-17
496 2 40.7404 187.566 -5.55112e-17
497 1 39.7003 217.359 -5.55112e-17
498 1 105.531 121.029 -5.55112e-17
499 2 133.132 4.49397 -5.55112e-17
500 1 41.0276 33.1364 -5.55112e-17
501 2 127.905 217.105 -5.55112e-17
502 2 126.265 144.35 -5.55112e-17
503 1 146.245 181.924 -5.55112e-17
504 1 113.088 148.452 -5.55112e-17
505 1 126.543 23.1188 -5.55112e-17
506 1 25.2456 135.968 -5.55112e-17
507 1 29.102 128.83 -5.55112e-17
508 1 206.65 8.55584 -5.55112e-17
509 2 35.1201 85.3409 -5.55112e-17
510 2 143.805 132.728 -5.55112e-17
511 1 193.254 37.9622 -5.55112e-17
512 2 207.377 60.4801 -5.55112e-17
513 1 51.86 133.508 -5.55112e-17
514 1 50.8581 14.1245 -5.55112e-17
515 1 203.701 25.6805 -5.55112e-17
516 1 184.56 213.371 -5.55112e-17
517 1 113.363 121.857 -5.55112e-17
518 2 103.39 9.90576 -5.55112e-17
519 1 11.2445 52.5511 -5.55112e-17
520 2 211.914 23.5139 -5.55112e-17
521 1 88.5311 110.39 -5.55112e-17
522 1 25.657 27.3503 -5.55112e-17
523 1 14.5601 63.0069 -5.55112e-17
524 1 99.083 74.804 -5.55112e-17
525 1 180.516 122.284 -5.55112e-17
526 1 190.329 65.2069 -5.55112e-17
527 1 76.2328 4.77751 -5.55112e-17
528 1 158.596 27.1785 -5.55112e-17
529 1 53.6794 136.792 -5.55112e-17
530 1 97.5516 40.7617 -5.55112e-17
531 1 58.9521 190.353 -5.55112e-17
532 1 206.693 188.82 -5.55112e-17
533 1 129.234 136.678 -5.55112e-17
534 1 97.6377 144.762 -5.55112e-17
535 1 11.3258 106.182 -5.55112e-17
536 1 210.897 122.428 -5.55112e-17
537 1 201.833 167.218 -5.55112e-17
538 1 168.198 81.3322 -5.55112e-17
539 1 89.968 212.033 -5.55112e-17
540 1 102.789 86.8232 -5.55112e-17
541 1 57.3608 40.4175 -5.55112e-17
542 1 62.1807 212.223 -5.55112e-17
543 1 151.268 150.74 -5.55112e-17
544 1 144.537 198.485 -5.55112e-17
545 1 11.7288 146.32 -5.55112e-17
546 1 178.962 41.4135 -5.55112e-17
547 1 81.4117 172.359 -5.55112e-17
548 1 103.034 2.25691 -5.55112e-17
549 1 55.9861 97.379 -5.55112e-17
550 2 155.395 124.492 -5.55112e-17
551 2 134.512 157.41 -5.55112e-17
552 2 93.671 180.248 -5.55112e-17
553 1 123.511 35.931 -5.55112e-17
554 1 70.4221 113.721 -5.55112e-17
555 2 69.1876 140.799 -5.55112e-17
556 1 144.049 29.3759 -5.55112e-17
557 1 77.2247 12.342 -5.55112e-17
558 1 132.505 123.39 -5.55112e-17
559 1 187.094 48.0203 -5.55112e-17
560 1 140.355 60.2611 -5.55112e-17
561 1 148.501 173.181 -5.55112e-17
562 1 197.109 143.402 -5.55112e-17
563 2 163.021 124.516 -5.55112e-17
564 1 18.9462 70.739 -5.55112e-17
565 1 60.2806 10.1399 -5.55112e-17
566 1 75.6847 34.0636 -5.55112e-17
567 1 130.046 122.803 -5.55112e-17
568 1 44.8548 132.97 -5.55112e-17
569 1 114.995 185.463 -5.55112e-17
570 1 124.79 131.006 -5.55112e-17
571 1 177.617 204.933 -5.55112e-17
572 1 50.8273 107.967 -5.55112e-17
573 1 176.559 77.1233 -5.55112e-17
574 1 38.2069 126.241 -5.55112e-17
575 1 16.8098 98.2333 -5.55112e-17
576 1 192.955 98.4872 -5.55112e-17
577 1 202.391 34.093 -5.55112e-17
578 1 116.316 198.151 -5.55112e-17
579 1 10.082 164.397 -5.55112e-17
580 1 102.944 139.147 -5.55112e-17
581 1 140.747 152.335 -5.55112e-17
582 1 75.0109 79.7796 -5.55112e-17
583 1 158.229 185.744 -5.55112e-17
584 2 26.8536 131.05 -5.55112e-17
585 1 49.4658 191.526 -5.55112e-17
586 1 136.98 168.167 -5.55112e-17
587 1 96.9806 105.278 -5.55112e-17
588 1 19.0635 214.144 -5.55112e-17
589 1 106.466 15.9304 -5.55112e-17
590 1 71.1142 0.0398807 -5.55112e-17
591 1 215.917 163.336 -5.55112e-17
592 1 63.559 171.351 -5.55112e-17
593 1 209.899 182.104 -5.55112e-17
594 1 181.516 181.729 -5.55112e-17
595 1 83.2797 39.8617 -5.55112e-17
596 1 66.6551 35.3522 -5.55112e-17
597 2 183.806 208.154 -5.55112e-17
598 1 167.852 210.508 -5.55112e-17
599 1 208.14 172.042 -5.55112e-17
600 1 122.726 18.3048 -5.55112e-17
601 1 27.6899 136.643 -5.55112e-17
602 1 99.0723 31.2023 -5.55112e-17
603 1 212.03 211.463 -5.55112e-17
604 1 115.318 11.5702 -5.55112e-17
605 2 84.8076 78.0921 -5.55112e-17
606 1 103.684 200.221 -5.55112e-17
607 2 171.938 147.059 -5.55112e-17
608 1 94.2659 76.7772 -5.55112e-17
609 1 16.3414 6.29457 -5.55112e-17
610 1 210.64 153.69 -5.55112e-17
611 1 202.15 191.136 -5.55112e-17
612 1 217.759 38.3918 -5.55112e-17
613 1 62.9281 152.925 -5.55112e-17
614 2 128.163 179.51 -5.55112e-17
615 1 135.068 21.1337 -5.55112e-17
616 1 204.175 117.86 -5.55112e-17
617 1 120.92 196.258 -5.55112e-17
618 1 190.619 204.148 -5.55112e-17
619 1 179.97 81.3584 -5.55112e-17
620 1 146.976 133.579 -5.55112e-17
621 1 204.979 93.7801 -5.55112e-17
622 1 93.9527 210.725 -5.55112e-17
623 1 0.431479 13.6901 -5.55112e-17
624 1 25.0375 210.066 -5.55112e-17
625 1 203.64 153.752 -5.55112e-17
626 1 94.8189 190.572 -5.55112e-17
627 1 53.6814 79.7253 -5.55112e-17
628 1 27.7605 25.9068 -5.55112e-17
629 1 33.4793 106.541 -5.55112e-17
630 2 150.851 19.4534 -5.55112e-17
631 1 22.1034 74.0425 -5.55112e-17
632 1 42.6744 100.666 -5.55112e-17
633 1 39.2619 212.118 -5.55112e-17
634 1 1.47026 146.688 -5.55112e-17
635 1 163.567 148.628 -5.55112e-17
636 1 208.952 67.079 -5.55112e-17
637 1 205.828 57.8174 -5.55112e-17
638 1 172.301 77.0479 -5.55112e-17
639 2 202.799 78.9502 -5.55112e-17
640 1 134.763 148.232 -5.55112e-17
641 1 188.365 91.9483 -5.55112e-17
642 1 25.7944 87.8462 -5.55112e-17
643 2 181.854 42.8167 -5.55112e-17
644 1 65.5696 160.41 -5.55112e-17
645 1 108.83 192.226 -5.55112e-17
646 2 208.718 138.935 -5.55112e-17
647 1 11.4346 186.199 -5.55112e-17
648 1 134.282 94.0594 -5.55112e-17
649 2 24.7868 154.82 -5.55112e-17
650 1 204.69 187.173 -5.55112e-17
651 1 0.469656 112.325 -5.55112e-17
652 1 160.561 45.5884 -5.55112e-17
653 1 114.728 175.605 -5.55112e-17
654 1 23.2784 21.9421 -5.55112e-17
655 2 183.321 104.898 -5.55112e-17
656 1 46.0055 107.019 -5.55112e-17
657 2 79.5835 206.988 -5.55112e-17
658 1 60.0252 44.1703 -5.55112e-17
659 2 162.347 192.497 -5.55112e-17
660 1 112.551 45.8591 -5.55112e-17
661 1 46.4915 134.752 -5.55112e-17
662 1 84.066 131.678 -5.55112e-17
663 1 35.6842 18.3662 -5.55112e-17
664 1 141.987 18.1806 -5.55112e-17
665 1 141.296 80.2725 -5.55112e-17
666 2 50.8003 183.52 -5.55112e-17
667 1 93.4266 99.5089 -5.55112e-17
668 2 102.51 89.7396 -5.55112e-17
669 1 41.1611 17.912 -5.55112e-17
670 1 96.1629 173.477 -5.55112e-17
671 2 45.8696 172.006 -5.55112e-17
672 1 183.423 16.6877 -5.55112e-17
673 1 64.2576 19.1935 -5.55112e-17
674 1 1.5526 32.0219 -5.55112e-17
675 1 124.445 20.8295 -5.55112e-17
676 1 169.725 108.399 -5.55112e-17
677 1 131.801 174.766 -5.55112e-17
678 1 138.989 30.482 -5.55112e-17
679 2 155.736 26.6917 -5.55112e-17
680 1 202.437 42.3115 -5.55112e-17
681 2 125.91 126.319 -5.55112e-17
682 1 218.704 48.3496 -5.55112e-17
683 1 69.1325 4.10158 -5.55112e-17
684 1 119.958 154.941 -5.55112e-17
685 1 147.75 35.6205 -5.55112e-17
686 1 32.4495 183.5 -5.55112e-17
687 1 132.592 197.83 -5.55112e-17
688 1 168.61 103.498 -5.55112e-17
689 2 55.2254 38.4291 -5.55112e-17
690 1 71.2032 19.544 -5.55112e-17
691 1 90.5097 68.4689 -5.55112e-17
692 1 133.227 13.6423 -5.55112e-17
693 1 49.7779 164.362 -5.55112e-17
694 1 64.5825 130.717 -5.55112e-17
695 1 155.978 45.7304 -5.55112e-17
696 1 140.083 70.241 -5.55112e-17
697 1 143.742 200.99 -5.55112e-17
698 1 120.181 69.1626 -5.55112e-17
699 1 178.055 193.181 -5.55112e-17
700 1 204.849 207.161 -5.55112e-17
701 1 49.2182 21.7652 -5.55112e-17
702 1 113.771 129.098 -5.55112e-17
703 2 188.784 144.483 -5.55112e-17
704 1 30.0004 0.117901 -5.55112e-17
705 2 62.7675 112.442 -5.55112e-17
706 1 162.809 176.589 -5.55112e-17
707 1 121.891 21.7157 -5.55112e-17
708 1 84.6493 209.835 -5.55112e-17
709 1 145.841 196.314 -5.55112e-17
710 1 192.294 192.599 -5.55112e-17
711 1 121.924 87.8026 -5.55112e-17
712 1 195.032 218.399 -5.55112e-17
713 1 31.7437 129.436 -5.55112e-17
714 1 141.608 9.10085 -5.55112e-17
715 1 63.4314 189.075 -5.55112e-17
716 1 35.1165 120.2 -5.55112e-17
717 1 45.4274 113.313 -5.55112e-17
718 1 131.125 190.198 -5.55112e-17
719 2 114.232 77.0242 -5.55112e-17
720 1 94.2863 62.0498 -5.55112e-17
721 1 95.8738 98.509 -5.55112e-17
722 1 125.777 62.437 -5.55112e-17
723 2 48.3048 46.7668 -5.55112e-17
724 1 15.7715 51.4067 -5.55112e-17
725 1 43.586 94.8132 -5.55112e-17
726 1 189.297 46.5391 -5.55112e-17
727 1 149.192 204.761 -5.55112e-17
728 2 45.4195 85.7684 -5.55112e-17
729 1 133.87 164.929 -5.55112e-17
730 1 178.539 202.728 -5.55112e-17
731 1 58.3835 185.274 -5.55112e-17
732 1 7.12466 8.95244 -5.55112e-17
733 1 205.102 34.7818 -5.55112e-17
734 1 3.26637 29.5767 -5.55112e-17
735 1 47.7325 31.7727 -5.55112e-17
736 2 189.275 75.0959 -5.55112e-17
737 1 81.1276 87.0822 -5.55112e-17
738 1 12.0408 166.172 -5.55112e-17
739 1 105.91 156.54 -5.55112e-17
740 1 29.2382 108.966 -5.55112e-17
741 2 187.207 79.2709 -5.55112e-17
742 1 69.5439 41.487 -5.55112e-17
743 1 203.688 64.2514 -5.55112e-17
744 2 210.835 173.721 -5.55112e-17
745 1 132.041 31.2685 -5.55112e-17
746 1 11.3367 30.8377 -5.55112e-17
747 2 203.29 22.7815 -5.55112e-17
748 1 182.675 193.947 -5.55112e-17
749 1 191.963 210.026 -5.55112e-17
750 1 213.464 164.37 -5.55112e-17
751 1 45.8261 57.7425 -5.55112e-17
752 1 171.097 102.203 -5.55112e-17
753 1 99.3281 151.113 -5.55112e-17
754 1 5.84643 1.22183 -5.55112e-17
755 1 84.1293 195.331 -5.55112e-17
756 2 104.743 194.739 -5.55112e-17
757 1 27.3648 19.0493 -5.55112e-17
758 1 130.937 150.026 -5.55112e-17
759 1 72.3728 115.702 -5.55112e-17
760 1 91.3165 46.0512 -5.55112e-17
761 1 60.9738 180.351 -5.55112e-17
762 1 41.829 23.5292 -5.55112e-17
763 1 118.215 103.547 -5.55112e-17
764 2 178.011 148.877 -5.55112e-17
765 1 94.5557 52.1956 -5.55112e-17
766 1 106.217 32.636 -5.55112e-17
767 1 96.3425 78.3432 -5.55112e-17
768 1 9.95986 211.921 -5.55112e-17
769 1 105.499 79.3845 -5.55112e-17
770 2 116.711 111.878 -5.55112e-17
771 1 136.895 189.245 -5.55112e-17
772 1 102.553 27.9697 -5.55112e-17
773 1 109.563 167.569 -5.55112e-17
774 1 111.742 124.028 -5.55112e-17
775 1 69.5965 6.71224 -5.55112e-17
776 1 38.6135 11.6387 -5.55112e-17
777 1 107.983 182.265 -5.55112e-17
778 1 22.2796 19.2581 -5.55112e-17
779 1 191.335 44.962 -5.55112e-17
780 1 4.23996 168.245 -5.55112e-17
781 1 118.807 100.941 -5.55112e-17
782 1 174.98 49.8175 -5.55112e-17
783 1 99.4508 15.8772 -5.55112e-17
784 2 195.374 159.744 -5.55112e-17
785 1 110.954 165.314 -5.55112e-17
786 1 119.531 177.322 -5.55112e-17
787 1 183.947 75.2257 -5.55112e-17
788 1 176.936 45.5199 -5.55112e-17
789 2 132.871 104.371 -5.55112e-17
790 1 110.537 35.1363 -5.55112e-17
791 2 15.0827 124.975 -5.55112e-17
792 2 216.715 15.4462 -5.55112e-17
793 2 116.098 72.218 -5.55112e-17
794 1 51.833 189.741 -5.55112e-17
795 1 123.792 58.5327 -5.55112e-17
796 1 120.809 19.6176 -5.55112e-17
797 1 198.257 155.726 -5.55112e-17
798 2 197.848 205.334 -5.55112e-17
799 2 206.288 65.8135 -5.55112e-17
800 2 56.1454 217.35 -5.55112e-17
801 1 101.159 134.089 -5.55112e-17
802 1 121.506 78.3159 -5.55112e-17
803 1 181.03 68.5873 -5.55112e-17
804 2 125.624 1.26431 -5.55112e-17
805 1 42.5389 114.243 -5.55112e-17
806 1 12.8276 110.311 -5.55112e-17
807 2 105.327 100.396 -5.55112e-17
808 1 8.85814 117.536 -5.55112e-17
809 2 53.7978 131.128 -5.55112e-17
810 1 125.075 217.452 -5.55112e-17
811 1 33.4565 6.584 -5.55112e-17
812 1 132.592 33.6432 -5.55112e-17
813 2 109.676 106.941 -5.55112e-17
814 1 129.331 65.5607 -5.55112e-17
815 1 88.8457 164.154 -5.55112e-17
816 1 187.931 19.2007 -5.55112e-17
817 1 112.193 208.558 -5.55112e-17
818 1 48.2307 108.075 -5.55112e-17
819 1 14.9863 136.978 -5.55112e-17
820 1 55.4507 114.647 -5.55112e-17
821 1 94.4892 151.704 -5.55112e-17
822 2 36.5342 128.443 -5.55112e-17
823 2 142.322 84.3777 -5.55112e-17
824 1 38.4458 66.9208 -5.55112e-17
825 1 66.1556 15.1697 -5.55112e-17
826 1 195.658 208.638 -5.55112e-17
827 1 197.681 102.237 -5.55112e-17
828 1 134.486 131.166 -5.55112e-17
829 1 140.148 11.1447 -5.55112e-17
830 1 67.6694 131.026 -5.55112e-17
831 1 216.979 43.2093 -5.55112e-17
832 1 92.6418 87.4432 -5.55112e-17
833 1 52.8536 94.0415 -5.55112e-17
834 1 117.37 207.59 -5.55112e-17
835 1 56.8457 0.951749 -5.55112e-17
836 1 9.51428 47.9153 -5.55112e-17
837 1 3.87114 73.174 -5.55112e-17
838 1 98.0481 178.092 -5.55112e-17
839 2 200.421 12.5046 -5.55112e-17
840 1 0.692762 218.71 -5.55112e-17
841 2 69.8406 175.084 -5.55112e-17
842 1 94.4174 91.687 -5.55112e-17
843 2 165.567 175.163 -5.55112e-17
844 1 48.4764 156.842 -5.55112e-17
845 1 66.9984 196.71 -5.55112e-17
846 1 156.36 183.468 -5.55112e-17
847 1 61.4582 158.49 -5.55112e-17
848 1 187.114 122.475 -5.55112e-17
849 1 189.78 167.451 -5.55112e-17
850 1 19.5316 135.97 -5.55112e-17
851 1 95.5028 39.6333 -5.55112e-17
852 1 6.1745 207.346 -5.55112e-17
853 1 41.364 130.139 -5.55112e-17
854 1 170.938 85.1958 -5.55112e-17
855 1 133.766 19.2607 -5.55112e-17
856 1 212.619 170.317 -5.55112e-17
857 1 74.1502 155.714 -5.55112e-17