ITEM: TIMESTEP
0
ITEM: NUMBER OF ATOMS
7200
ITEM: BOX BOUNDS xy xz yz pp pp pp
0.0000000000000000e+00 2.1900000000000000e+02 0.0000000000000000e+00
0.0000000000000000e+00 2.1900000000000000e+02 0.0000000000000000e+00
-3.6499999999999999e-01 3.6499999999999999e-01 0.0000000000000000e+00
ITEM: ATOMS id type x y z
1 1 67.4186 78.7696 -5.55112e-17
2 1 186.03 177.654 -5.55112e-17
3 1 26.2812 141.083 -5.55112e-17
4 1 4.97078 118.913 -5.55112e-17
5 1 41.064 34.8503 -5.55112e-17
6 1 153.386 153.169 -5.55112e-17
7 1 156.345 84.4722 -5.55112e-17
8 2 4.41638 157.652 -5.55112e-17
9 1 203.245 178.625 -5.55112e-17
10 2 19.7243 43.7876 -5.55112e-17
11 1 201.509 145.812 -5.55112e-17
12 1 171.744 215.98 -5.55112e-17
13 2 89.4901 199.308 -5.55112e-17
14 1 83.6321 165.46 -5.55112e-17
15 1 115.428 189.344 -5.55112e-17
16 2 44.3803 17.7043 -5.55112e-17
17 1 23.6821 158.803 -5.55112e-17
18 2 38.5936 109.068 -5.55112e-17
19 1 205.912 141.693 -5.55112e-17
20 1 17.8767 56.324 -5.55112e-17
21 1 176.574 185.156 -5.55112e-17
22 2 49.24 7.6789 -5.55112e-17
23 2 35.916 27.4944 -5.55112e-17
24 1 101.389 133.207 -5.55112e-17
25 1 195.823 208.051 -5.55112e-17
26 2 3.18492 134.527 -5.55112e-17
27 1 111.032 110.865 -5.55112e-17
28 2 213.303 91.1698 -5.55112e-17
29 1 110.543 191.092 -5.55112e-17
30 1 59.6299 88.8552 -5.55112e-17
31 1 91.8135 154.562 -5.55112e-17
32 1 36.7984 186.881 -5.55112e-17
33 1 22.7806 66.9034 -5.55112e-17
34 1 116.183 129.215 -5.55112e-17
35 1 45.917 182.543 -5.55112e-17
36 1 137.922 10.5448 -5.55112e-17
37 2 47.5239 49.629 -5.55112e-17
38 1 103.079 162.653 -5.55112e-17
39 1 136.675 102.58 -5.55112e-17
40 1 102.124 87.6677 -5.55112e-17
41 1 90.1852 42.5885 -5.55112e-17
42 1 211.683 70.4854 -5.55112e-17
43 1 124.109 52.1067 -5.55112e-17
44 1 156.996 170.645 -5.55112e-17
45 1 81.629 156.548 -5.55112e-17
46 1 46.1761 82.8877 -5.55112e-17
47 1 3.62517 64.2855 -5.55112e-17
48 2 27.0107 143.858 -5.55112e-17
49 1 46.6722 70.7016 -5.55112e-17
50 1 53.5376 217.106 -5.55112e-17
51 1 14.5908 114.245 -5.55112e-17
52 1 117.147 25.4058 -5.55112e-17
53 1 184.819 9.22142 -5.55112e-17
54 1 77.343 90.7885 -5.55112e-17
55 1 67.954 190.07 -5.55112e-17
56 1 30.1123 57.9953 -5.55112e-17
57 2 45.2781 37.415 -5.55112e-17
58 1 58.0927 133.214 -5.55112e-17
59 1 24.4153 107.348 -5.55112e-17
60 2 32.6267 29.6894 -5.55112e-17
61 2 62.455 172.258 -5.55112e-17
62 1 128.074 78.146 -5.55112e-17
63 1 42.7508 57.0317 -5.55112e-17
64 1 95.5851 103.985 -5.55112e-17
65 1 152.384 68.0661 -5.55112e-17
66 1 209.513 180.008 -5.55112e-17
67 1 133.41 121.2 -5.55112e-17
68 1 106.865 81.6159 -5.55112e-17
69 1 206.329 174.581 -5.55112e-17
70 1 27.0235 73.8388 -5.55112e-17
71 1 63.9486 142.873 -5.55112e-17
72 1 78.5624 216.584 -5.55112e-17
73 1 26.5559 117.647 -5.55112e-17
74 1 103.219 63.4494 -5.55112e-17
75 2 164.087 41.6638 -5.55112e-17
76 1 112.142 106.221 -5.55112e-17
77 1 116.002 50.7765 -5.55112e-17
78 1 125.278 100.324 -5.55112e-17
79 2 112.789 214.342 -5.55112e-17
80 1 115.843 37.9727 -5.55112e-17
81 1 66.6608 177.367 -5.55112e-17
82 1 173.473 165.403 -5.55112e-17
83 2 130.167 34.1844 -5.55112e-17
84 1 119.019 111.674 -5.55112e-17
85 1 30.5558 205.461 -5.55112e-17
86 1 1.84589 99.3832 -5.55112e-17
87 1 147.081 138.66 -5.55112e-17
88 1 65.9544 209.569 -5.55112e-17
89 2 95.7262 151.466 -5.55112e-17
90 2 197.277 50.881 -5.55112e-17
91 1 60.0322 174.111 -5.55112e-17
92 2 207.743 169.381 -5.55112e-17
93 1 186.327 99.7477 -5.55112e-17
94 2 149.601 89.0341 -5.55112e-17
95 1 217.56 106.368 -5.55112e-17
96 1 107.11 154.882 -5.55112e-17
97 1 166.968 125.035 -5.55112e-17
98 1 192.508 109.683 -5.55112e-17
99 1 32.7172 206.788 -5.55112e-17
100 1 102.035 31.732 -5.55112e-17
101 1 4.2477 206.212 -5.55112e-17
102 1 69.4165 23.2483 -5.55112e-17
103 1 61.4494 11.431 -5.55112e-17
104 1 176.318 160.067 -5.55112e-17
105 1 166.799 23.7299 -5.55112e-17
106 1 60.7066 104.204 -5.55112e-17
107 2 193.136 61.851 -5.55112e-17
108 1 176.596 107.862 -5.55112e-17
109 1 121.214 211.725 -5.55112e-17
110 1 105.403 17.3683 -5.55112e-17
111 1 131.239 115.806 -5.55112e-17
112 1 28.8023 96.5154 -5.55112e-17
113 1 5.32451 70.7278 -5.55112e-17
114 1 165.347 190.086 -5.55112e-17
115 1 178.713 116.03 -5.55112e-17
116 2 130.691 99.4563 -5.55112e-17
117 1 66.0102 29.2326 -5.55112e-17
118 1 23.8051 149.637 -5.55112e-17
119 2 126.473 92.8382 -5.55112e-17
120 1 160.748 149.062 -5.55112e-17
121 1 157.901 27.8154 -5.55112e-17
122 1 77.721 53.0744 -5.55112e-17
123 1 78.56 62.8352 -5.55112e-17
124 1 79.9376 136.692 -5.55112e-17
125 1 147.276 33.4526 -5.55112e-17
126 1 42.0554 176.343 -5.55112e-17
127 1 114.572 48.8502 -5.55112e-17
128 1 217.189 196.895 -5.55112e-17
129 1 26.686 175.417 -5.55112e-17
130 1 168.822 198.173 -5.55112e-17
131 1 211.476 89.2544 -5.55112e-17
132 2 106.301 94.2735 -5.55112e-17
133 1 108.625 119.844 -5.55112e-17
134 1 169.067 8.87072 -5.55112e-17
135 1 126.414 117.849 -5.55112e-17
136 1 32.3659 79.0951 -5.55112e-17
137 1 41.0231 75.1059 -5.55112e-17
138 1 60.0688 81.6663 -5.55112e-17
139 1 48.4986 97.9701 -5.55112e-17
140 2 111.825 29.7124 -5.55112e-17
141 1 137.646 92.3091 -5.55112e-17
142 2 74.9678 62.4177 -5.55112e-17
143 1 40.4204 147.318 -5.55112e-17
144 2 116.663 88.6794 -5.55112e-17
145 1 173.575 3.85257 -5.55112e-17
146 1 152.74 87.7864 -5.55112e-17
147 1 80.2174 207.144 -5.55112e-17
148 1 118.255 36.5857 -5.55112e-17
149 1 131.837 161.866 -5.55112e-17
150 1 48.7076 148.042 -5.55112e-17
151 1 16.419 75.6089 -5.55112e-17
152 1 101.649 73.426 -5.55112e-17
153 2 30.9483 62.5357 -5.55112e-17
154 1 57.821 80.9394 -5.55112e-17
155 1 66.8638 63.6754 -5.55112e-17
156 2 91.2552 93.0217 -5.55112e-17
157 1 206.446 129.039 -5.55112e-17
158 1 167.176 200.041 -5.55112e-17
159 1 55.5215 120.439 -5.55112e-17
160 1 163.474 185.114 -5.55112e-17
161 1 90.0209 83.5114 -5.55112e-17
162 1 132.137 154.895 -5.55112e-17
163 1 151.488 174.833 -5.55112e-17
164 1 193.68 217.676 -5.55112e-17
165 1 23.3235 7.12912 -5.55112e-17
166 2 128.728 21.3404 -5.55112e-17
167 1 168.333 137.168 -5.55112e-17
168 1 197.967 155.49 -5.55112e-17
169 1 74.9119 97.942 -5.55112e-17
170 1 205.05 127.206 -5.55112e-17
171 1 104.801 56.0354 -5.55112e-17
172 1 184.634 37.7758 -5.55112e-17
173 1 117.952 217.268 -5.55112e-17
174 1 10.6324 169.813 -5.55112e-17
175 2 11.8139 20.1895 -5.55112e-17
176 1 197.31 108.694 -5.55112e-17
177 2 33.123 187.806 -5.55112e-17
178 1 23.6291 51.6772 -5.55112e-17
179 1 76.8082 67.4632 -5.55112e-17
180 1 199.23 107.282 -5.55112e-17
181 1 41.7604 192.28 -5.55112e-17
182 2 8.41532 33.6858 -5.55112e-17
183 1 163.769 206.419 -5.55112e-17
184 1 76.4761 166.799 -5.55112e-17
185 2 128.76 119.815 -5.55112e-17
186 2 153.19 129.241 -5.55112e-17
187 1 96.1984 46.4666 -5.55112e-17
188 1 143.55 217.879 -5.55112e-17
189 1 196.247 141.556 -5.55112e-17
190 2 31.3017 70.5171 -5.55112e-17
191 1 157.002 141.352 -5.55112e-17
192 2 46.6243 179.576 -5.55112e-17
193 2 169.085 78.1236 -5.55112e-17
194 1 2.31343 5.18139 -5.55112e-17
195 1 183.821 194.154 -5.55112e-17
196 1 55.546 73.1264 -5.55112e-17
197 1 154.18 24.085 -5.55112e-17
198 2 11.0346 198.424 -5.55112e-17
199 1 22.0378 196.003 -5.55112e-17
200 1 92.4017 195.068 -5.55112e-17
201 2 42.6727 218.932 -5.55112e-17
202 1 87.8461 83.8085 -5.55112e-17
203 1 82.0413 2.25756 -5.55112e-17
204 1 130.924 181.229 -5.55112e-17
205 2 206.115 20.2061 -5.55112e-17
206 1 191.696 54.0459 -5.55112e-17
207 1 52.3106 22.4039 -5.55112e-17
208 1 103.043 209.91 -5.55112e-17
209 1 167.536 208.433 -5.55112e-17
210 1 212.343 139.448 -5.55112e-17
211 2 93.78 138.385 -5.55112e-17
212 1 180.586 201.463 -5.55112e-17
213 1 49.1836 186.05 -5.55112e-17
214 1 92.6777 15.3873 -5.55112e-17
215 1 116.305 71.1214 -5.55112e-17
216 1 216.078 68.4003 -5.55112e-17
217 1 165.703 44.1195 -5.55112e-17
218 2 116.844 202.249 -5.55112e-17
219 1 90.8162 166.622 -5.55112e-17
220 2 56.5635 10.0193 -5.55112e-17
221 1 202.61 204.118 -5.55112e-17
222 1 3.60153 160.828 -5.55112e-17
223 1 18.2015 92.3328 -5.55112e-17
224 2 165.652 132.8 -5.55112e-17
225 1 164.27 76.9099 -5.55112e-17
226 1 195.505 165.193 -5.55112e-17
227 2 94.056 128.469 -5.55112e-17
228 1 14.3304 209.477 -5.55112e-17
229 1 153.933 59.6988 -5.55112e-17
230 1 126.049 212.344 -5.55112e-17
231 1 0.94805 183.015 -5.55112e-17
232 1 22.7428 118.741 -5.55112e-17
233 1 66.2955 59.28 -5.55112e-17
234 1 64.2569 170.128 -5.55112e-17
235 1 52.3748 64.0602 -5.55112e-17
236 1 214.292 182.588 -5.55112e-17
237 1 175.092 209.838 -5.55112e-17
238 1 131.583 21.9391 -5.55112e-17
239 2 210.172 206.813 -5.55112e-17
240 1 47.2853 23.3826 -5.55112e-17
241 2 47.9548 80.3186 -5.55112e-17
242 2 96.0368 217.614 -5.55112e-17
243 2 201.193 164.191 -5.55112e-17
244 1 36.9156 8.92571 -5.55112e-17
245 1 16.293 63.7408 -5.55112e-17
246 1 32.2034 65.6914 -5.55112e-17
247 1 107.87 136.838 -5.55112e-17
248 1 146.589 26.1194 -5.55112e-17
249 1 19.2078 126.812 -5.55112e-17
250 2 127.921 123.241 -5.55112e-17
251 1 166.304 159.187 -5.55112e-17
252 1 28.4322 90.2147 -5.55112e-17
253 1 50.2787 54.6364 -5.55112e-17
254 2 140.446 119.742 -5.55112e-17
255 1 128.427 167.667 -5.55112e-17
256 1 8.09292 198.089 -5.55112e-17
257 1 214.052 187.749 -5.55112e-17
258 2 64.9269 16.4095 -5.55112e-17
259 1 39.9761 198.976 -5.55112e-17
260 1 103.57 187.451 -5.55112e-17
261 1 66.6601 217.44 -5.55112e-17
262 1 54.5499 167.291 -5.55112e-17
263 1 92.2948 100.346 -5.55112e-17
264 1 74.9015 212.126 -5.55112e-17
265 1 80.1927 20.154 -5.55112e-17
266 1 62.6219 156.545 -5.55112e-17
267 1 126.673 52.0867 -5.55112e-17
268 1 124.432 95.2359 -5.55112e-17
269 1 188.119 28.91 -5.55112e-17
270 1 27.4941 165.711 -5.55112e-17
271 1 97.789 33.3502 -5.55112e-17
272 1 147.589 57.0009 -5.55112e-17
273 1 131.929 14.693 -5.55112e-17
274 2 151.901 78.9485 -5.55112e-17
275 1 131.571 136.261 -5.55112e-17
276 2 36.6851 37.5245 -5.55112e-17
277 2 39.406 10.4131 -5.55112e-17
278 1 24.3246 116.816 -5.55112e-17
279 2 195.708 22.7016 -5.55112e-17
280 1 161.6 86.2228 -5.55112e-17
281 1 184.954 76.2237 -5.55112e-17
282 1 203.187 166.58 -5.55112e-17
283 1 91.4519 17.6566 -5.55112e-17
284 1 216.408 150.859 -5.55112e-17
285 1 191.824 209.9 -5.55112e-17
286 2 204.255 4.50529 -5.55112e-17
287 1 6.92944 155.584 -5.55112e-17
288 1 145.917 197.292 -5.55112e-17
289 1 118.594 27.9017 -5.55112e-17
290 1 138.928 179.986 -5.55112e-17
291 1 5.46369 33.7044 -5.55112e-17
292 2 55.0854 66.2409 -5.55112e-17
293 2 136.295 3.6321 -5.55112e-17
294 1 73.4011 87.5649 -5.55112e-17
295 1 202.308 127.411 -5.55112e-17
296 1 73.1004 19.3358 -5.55112e-17
297 1 207.36 106.261 -5.55112e-17
298 1 144.968 194.907 -5.55112e-17
299 1 103.712 36.1548 -5.55112e-17
300 2 205.312 153.407 -5.55112e-17
301 1 151.371 154.292 -5.55112e-17
302 1 167.184 114.635 -5.55112e-17
303 2 98.6618 69.6723 -5.55112e-17
304 2 136.103 189.899 -5.55112e-17
305 1 86.98 98.7295 -5.55112e-17
306 1 183.934 17.1254 -5.55112e-17
307 1 114.456 187.071 -5.55112e-17
308 1 8.14415 153.057 -5.55112e-17
309 2 156.165 138.558 -5.55112e-17
310 1 206.194 38.3802 -5.55112e-17
311 1 76.4754 7.00478 -5.55112e-17
312 1 215.048 88.701 -5.55112e-17
313 2 217.748 46.1647 -5.55112e-17
314 1 31.1514 34.4587 -5.55112e-17
315 1 156.732 112.891 -5.55112e-17
316 1 53.9129 164.679 -5.55112e-17
317 1 141.381 153.962 -5.55112e-17
318 1 81.8632 204.845 -5.55112e-17
319 1 30.7511 218.397 -5.55112e-17
320 1 135.933 97.9797 -5.55112e-17
321 1 132.172 71.7095 -5.55112e-17
322 1 30.0779 170.874 -5.55112e-17
323 1 168.41 70.1627 -5.55112e-17
324 1 64.1394 124.625 -5.55112e-17
325 1 67.9429 95.0367 -5.55112e-17
326 1 92.7676 162.175 -5.55112e-17
327 2 181.7 9.93217 -5.55112e-17
328 1 122.549 40.7366 -5.55112e-17
329 2 204.965 27.5221 -5.55112e-17
330 1 211.948 82.1789 -5.55112e-17
331 1 152.193 7.3754 -5.55112e-17
332 2 166.277 51.4919 -5.55112e-17
333 1 69.8113 153.92 -5.55112e-17
334 1 15.2099 8.43238 -5.55112e-17
335 1 122.936 100.477 -5.55112e-17
336 1 37.1221 178.178 -5.55112e-17
337 1 106.151 36.9866 -5.55112e-17
338 1 2.80158 168.426 -5.55112e-17
339 1 170.627 45.0154 -5.55112e-17
340 1 207.385 56.5975 -5.55112e-17
341 1 209.552 190.127 -5.55112e-17
342 1 15.5276 190.11 -5.55112e-17
343 1 78.0884 93.4385 -5.55112e-17
344 1 113.866 194.88 -5.55112e-17
345 1 2.73741 69.4507 -5.55112e-17
346 1 197.91 35.0376 -5.55112e-17
347 1 119.589 47.8701 -5.55112e-17
348 1 213.216 168.726 -5.55112e-17
349 1 100.095 17.4961 -5.55112e-17
350 2 34.4489 123.694 -5.55112e-17
351 1 0.783992 61.1439 -5.55112e-17
352 1 113.587 54.8236 -5.55112e-17
353 1 143.624 186.835 -5.55112e-17
354 1 193.39 207.676 -5.55112e-17
355 1 49.8881 30.2316 -5.55112e-17
356 1 58.9781 135.944 -5.55112e-17
357 1 78.1452 50.5501 -5.55112e-17
358 1 86.3961 143.616 -5.55112e-17
359 1 155.565 100.833 -5.55112e-17
360 1 15.7357 142.901 -5.55112e-17
361 1 29.302 41.3862 -5.55112e-17
362 1 157.391 66.2303 -5.55112e-17
363 1 158.312 81.3445 -5.55112e-17
364 2 218.535 1.26671 -5.55112e-17
365 1 25.9701 91.3608 -5.55112e-17
366 1 200.634 89.2817 -5.55112e-17
367 1 74.0124 6.90878 -5.55112e-17
368 1 190.18 66.6698 -5.55112e-17
369 2 192.812 183.22 -5.55112e-17
370 1 105.05 0.234824 -5.55112e-17
371 1 104.661 167.685 -5.55112e-17
372 2 140.282 56.7828 -5.55112e-17
373 2 146.122 165.299 -5.55112e-17
374 1 108.669 67.1198 -5.55112e-17
375 1 109.309 24.472 -5.55112e-17
376 1 106.107 125.268 -5.55112e-17
377 1 139.47 59.3803 -5.55112e-17
378 1 98.5885 94.4949 -5.55112e-17
379 1 116.529 115.985 -5.55112e-17
380 1 200.579 19.2338 -5.55112e-17
381 1 214.452 102.875 -5.55112e-17
382 1 183.201 115.387 -5.55112e-17
383 1 179.617 119.333 -5.55112e-17
384 1 128.493 187.958 -5.55112e-17
385 1 175.835 47.1099 -5.55112e-17
386 2 156.962 190.314 -5.55112e-17
387 1 168.4 179.903 -5.55112e-17
388 1 59.5066 148.749 -5.55112e-17
389 1 85.3995 188.133 -5.55112e-17
390 2 38.2711 112.541 -5.55112e-17
391 2 201.215 188.49 -5.55112e-17
392 1 38.3424 52.2463 -5.55112e-17
393 1 202.363 206.938 -5.55112e-17
394 1 133.117 189.541 -5.55112e-17
395 1 56.6793 125.661 -5.55112e-17
396 1 84.7053 209.387 -5.55112e-17
397 1 124.293 105.547 -5.55112e-17
398 1 128.786 97.5597 -5.55112e-17
399 1 109.928 197.496 -5.55112e-17
400 1 5.61276 35.9236 -5.55112e-17
401 1 121.012 82.0542 -5.55112e-17
402 2 134.977 15.0494 -5.55112e-17
403 1 204.961 81.449 -5.55112e-17
404 1 19.9521 13.3972 -5.55112e-17
405 1 56.8918 148.18 -5.55112e-17
406 1 118.496 156.236 -5.55112e-17
407 2 30.0869 11.5151 -5.55112e-17
408 1 64.8131 174.881 -5.55112e-17
409 1 136.439 95.2425 -5.55112e-17
410 1 18.1179 82.9798 -5.55112e-17
411 1 71.946 107.031 -5.55112e-17
412 1 150.228 119.196 -5.55112e-17
413 1 207.329 178.772 -5.55112e-17
414 1 185.628 13.221 -5.55112e-17
415 1 153.723 99.2984 -5.55112e-17
416 1 162.368 83.8454 -5.55112e-17
417 1 72.5866 169.595 -5.55112e-17
418 2 145.638 215.921 -5.55112e-17
419 1 115.416 33.2166 -5.55112e-17
420 2 101.053 92.7239 -5.55112e-17
421 1 163.466 111.934 -5.55112e-17
422 1 157.925 17.471 -5.55112e-17
423 2 60.377 166.594 -5.55112e-17
424 1 30.1933 184.174 -5.55112e-17
425 1 49.3709 196.291 -5.55112e-17
426 1 123.732 93.0111 -5.55112e-17
427 1 42.9638 98.3633 -5.55112e-17
428 1 188.586 207.036 -5.55112e-17
429 1 212.242 127.985 -5.55112e-17
430 1 161.012 135.69 -5.55112e-17
431 1 31.0566 149.483 -5.55112e-17
432 1 70.1552 45.5903 -5.55112e-17
433 1 64.8797 112.28 -5.55112e-17
434 1 87.4694 113.512 -5.55112e-17
435 1 167.179 175.171 -5.55112e-17
436 1 30.2151 111.54 -5.55112e-17
437 1 213.202 3.85937 -5.55112e-17
438 2 102.708 136.064 -5.55112e-17
439 1 171.959 116.501 -5.55112e-17
440 1 123.832 212.002 -5.55112e-17
441 1 149.476 47.9636 -5.55112e-17
442 1 113.564 37.3003 -5.55112e-17
443 1 185.364 113.598 -5.55112e-17
444 1 192.496 138.164 -5.55112e-17
445 1 112.206 62.2097 -5.55112e-17
446 1 56.0903 175.271 -5.55112e-17
447 1 218 172.936 -5.55112e-17
448 1 151.983 53.4231 -5.55112e-17
449 1 69.5791 48.1378 -5.55112e-17
450 1 9.77721 38.1978 -5.55112e-17
451 1 14.8766 181.708 -5.55112e-17
452 1 197.318 122.5 -5.55112e-17
453 1 110.175 179.891 -5.55112e-17
454 1 69.9553 133.528 -5.55112e-17
455 1 178.73 40.7656 -5.55112e-17
456 1 82.1373 135.362 -5.55112e-17
457 1 24.321 215.557 -5.55112e-17
458 1 50.488 88.7609 -5.55112e-17
459 1 195.748 167.996 -5.55112e-17
460 1 206.605 186.643 -5.55112e-17
461 1 55.9707 177.782 -5.55112e-17
462 1 7.39864 78.9682 -5.55112e-17
463 1 166.92 4.86737 -5.55112e-17
464 1 49.6652 86.0458 -5.55112e-17
465 1 1.43274 110.652 -5.55112e-17
466 1 200.583 198.592 -5.55112e-17
467 1 47.85 55.0893 -5.55112e-17
468 1 194.904 115.081 -5.55112e-17
469 1 144.22 137.818 -5.55112e-17
470 1 108.826 59.1029 -5.55112e-17
471 1 113.773 40.1407 -5.55112e-17
472 1 93.6844 156.649 -5.55112e-17
473 1 67.8994 143.731 -5.55112e-17
474 1 204.419 24.7326 -5.55112e-17
475 1 150.531 130.913 -5.55112e-17
476 2 20.6059 18.9103 -5.55112e-17
477 1 16.2858 175.011 -5.55112e-17
478 1 146.186 142.874 -5.55112e-17
479 1 146.563 96.1996 -5.55112e-17
480 1 71.9316 205.807 -5.55112e-17
481 1 178.197 113.445 -5.55112e-17
482 1 79.7294 57.1663 -5.55112e-17
483 1 202.037 194.254 -5.55112e-17
484 2 4.16778 85.9694 -5.55112e-17
485 1 123.656 218.853 -5.55112e-17
486 1 163.578 51.078 -5.55112e-17
487 1 30.7189 98.7573 -5.55112e-17
488 1 94.387 44.2336 -5.55112e-17
489 1 107.647 129.873 -5.55112e-17
490 1 124.799 177.624 -5.55112e-17
491 1 99.1174 179.035 -5.55112e-17
492 1 13.0838 168.92 -5.55112e-17
493 1 137.467 13.2715 -5.55112e-17
494 1 133.178 211.932 -5.55112e-17
495 1 146.531 182.284 -5.55112e-17
496 2 75.4518 169.675 -5.55112e-17
497 1 181.735 59.9455 -5.55112e-17
498 1 135.524 53.7521 -5.55112e-17
499 2 165.31 56.0968 -5.55112e-17
500 1 12.9287 30.254 -5.55112e-17
501 2 8.99193 44.3214 -5.55112e-17
502 2 128.256 62.3135 -5.55112e-17
503 1 199.043 158.045 -5.55112e-17
504 1 130.033 153.369 -5.55112e-17
505 1 158.245 72.7682 -5.55112e-17
506 1 134.731 41.2829 -5.55112e-17
507 1 115.066 170.329 -5.55112e-17
508 1 146.997 106.875 -5.55112e-17
509 2 17.6255 31.1568 -5.55112e-17
510 2 183.679 47.0181 -5.55112e-17
511 1 112.073 64.3803 -5.55112e-17
512 2 214.722 54.2601 -5.55112e-17
513 1 138.012 143.006 -5.55112e-17
514 1 170.371 68.3883 -5.55112e-17
515 1 3.10515 16.3231 -5.55112e-17
516 1 22.1641 9.09696 -5.55112e-17
517 1 200.267 0.407965 -5.55112e-17
518 2 43.1239 47.3901 -5.55112e-17
519 1 21.0509 117.126 -5.55112e-17
520 2 29.1177 173.396 -5.55112e-17
521 1 35.0849 196.074 -5.55112e-17
522 1 157.764 93.6582 -5.55112e-17
523 1 192.81 123.81 -5.55112e-17
524 1 140.565 114.636 -5.55112e-17
525 1 43.0663 28.4363 -5.55112e-17
526 1 196.904 173.256 -5.55112e-17
527 1 28.8229 212.878 -5.55112e-17
528 1 198.578 178.39 -5.55112e-17
529 1 186.719 5.30504 -5.55112e-17
530 1 199.901 52.0523 -5.55112e-17
531 1 184.208 209.398 -5.55112e-17
532 1 119.175 23.4672 -5.55112e-17
533 1 30.9598 135.026 -5.55112e-17
534 1 51.0636 206.905 -5.55112e-17
535 1 158.104 126.504 -5.55112e-17
536 1 138.954 68.3517 -5.55112e-17
537 1 158.079 152.898 -5.55112e-17
538 1 101.483 124.556 -5.55112e-17
539 1 101.748 179.196 -5.55112e-17
540 1 213.958 116.917 -5.55112e-17
541 1 23.477 2.44668 -5.55112e-17
542 1 141.343 90.043 -5.55112e-17
543 1 149.058 137.065 -5.55112e-17
544 1 74.4774 132.128 -5.55112e-17
545 1 32.6177 121.535 -5.55112e-17
546 1 54.1148 202.53 -5.55112e-17
547 1 121.471 146.299 -5.55112e-17
548 1 123.143 3.9207 -5.55112e-17
549 1 88.7086 48.4611 -5.55112e-17
550 2 48.1754 158.864 -5.55112e-17
551 2 140.116 51.246 -5.55112e-17
552 2 141.815 43.9659 -5.55112e-17
553 1 60.3917 72.1101 -5.55112e-17
554 1 184.894 66.7175 -5.55112e-17
555 2 23.9313 174.833 -5.55112e-17
556 1 134.998 88.1467 -5.55112e-17
557 1 140.48 210.745 -5.55112e-17
558 1 90.9157 142.776 -5.55112e-17
559 1 149.807 22.5271 -5.55112e-17
560 1 161.536 59.9449 -5.55112e-17
561 1 60.4333 218.841 -5.55112e-17
562 1 113.012 88.647 -5.55112e-17
563 2 75.9667 173.558 -5.55112e-17
564 1 175.146 27.6848 -5.55112e-17
565 1 77.884 9.17396 -5.55112e-17
566 1 132.405 186.779 -5.55112e-17
567 1 175.733 112.817 -5.55112e-17
568 1 106.187 127.797 -5.55112e-17
569 1 209.713 201.347 -5.55112e-17
570 1 173.107 99.0561 -5.55112e-17
571 1 101.636 185.877 -5.55112e-17
572 1 49.6222 179.054 -5.55112e-17
573 1 145.382 53.3685 -5.55112e-17
574 1 71.369 24.4414 -5.55112e-17
575 1 93.8701 213.934 -5.55112e-17
576 1 105.055 214.819 -5.55112e-17
577 1 161.695 57.3604 -5.55112e-17
578 1 188.352 187.693 -5.55112e-17
579 1 109.051 102.847 -5.55112e-17
580 1 184.579 104.524 -5.55112e-17
581 1 138.635 191.385 -5.55112e-17
582 1 27.0547 39.6396 -5.55112e-17
583 1 145.685 37.2285 -5.55112e-17
584 2 73.708 134.805 -5.55112e-17
585 1 110.804 216.212 -5.55112e-17
586 1 133.889 149.205 -5.55112e-17
587 1 129.1 172.031 -5.55112e-17
588 1 63.7561 215.898 -5.55112e-17
589 1 107.888 27.0669 -5.55112e-17
590 1 19.6382 181.145 -5.55112e-17
591 1 87.2923 180.778 -5.55112e-17
592 1 144.936 130.43 -5.55112e-17
593 1 111.001 34.5387 -5.55112e-17
594 1 21.8715 41.8581 -5.55112e-17
595 1 2.99287 213.386 -5.55112e-17
596 1 152.056 209.076 -5.55112e-17
597 2 5.67548 169.086 -5.55112e-17
598 1 11.5144 164.784 -5.55112e-17
599 1 50.4761 100.093 -5.55112e-17
600 1 145.608 118.674 -5.55112e-17
601 1 2.13123 10.4976 -5.55112e-17
602 1 216.959 204.466 -5.55112e-17
603 1 26.4069 149.183 -5.55112e-17
604 1 111.443 199.549 -5.55112e-17
605 2 174.227 77.259 -5.55112e-17
606 1 7.69288 215.349 -5.55112e-17
607 2 187.413 8.27033 -5.55112e-17
608 1 116.794 65.7812 -5.55112e-17
609 1 163.419 96.284 -5.55112e-17
610 1 30.0786 176.398 -5.55112e-17
611 1 27.8759 21.9043 -5.55112e-17
612 1 185.189 203.986 -5.55112e-17
613 1 24.692 49.4261 -5.55112e-17
614 2 53.7498 96.6518 -5.55112e-17
615 1 71.622 162.745 -5.55112e-17
616 1 39.6267 106.22 -5.55112e-17
617 1 154.732 116.669 -5.55112e-17
618 1 0.526387 204.362 -5.55112e-17
619 1 100.536 181.278 -5.55112e-17
620 1 15.6839 83.4085 -5.55112e-17
621 1 205.127 139.477 -5.55112e-17
622 1 109.253 86.6279 -5.55112e-17
623 1 111.688 131.16 -5.55112e-17
624 1 151.504 156.904 -5.55112e-17
625 1 183.449 14.5225 -5.55112e-17
626 1 118.88 119.501 -5.55112e-17
627 1 177.876 137.679 -5.55112e-17
628 1 204.749 182.394 -5.55112e-17
629 1 6.12721 49.3829 -5.55112e-17
630 2 15.2214 19.1935 -5.55112e-17
631 1 73.7724 140.087 -5.55112e-17
632 1 14.5959 21.8922 -5.55112e-17
633 1 184.596 94.13 -5.55112e-17
634 1 132.669 24.4408 -5.55112e-17
635 1 33.4104 98.9761 -5.55112e-17
636 1 156.728 132.639 -5.55112e-17
637 1 109.493 122.315 -5.55112e-17
638 1 216.478 6.96814 -5.55112e-17
639 2 20.1539 7.35985 -5.55112e-17
640 1 11.9849 150.551 -5.55112e-17
641 1 38.7028 117.572 -5.55112e-17
642 1 1.9282 153.363 -5.55112e-17
643 2 216.229 97.6431 -5.55112e-17
644 1 109.019 44.6689 -5.55112e-17
645 1 192.589 66.3789 -5.55112e-17
646 2 2.34984 78.3562 -5.55112e-17
647 1 24.6459 54.0918 -5.55112e-17
648 1 88.5541 17.8234 -5.55112e-17
649 2 134.123 56.298 -5.55112e-17
650 1 65.6733 93.3535 -5.55112e-17
651 1 98.8095 186.223 -5.55112e-17
652 1 91.8484 22.4944 -5.55112e-17
653 1 193.263 169.537 -5.55112e-17
654 1 160.168 71.122 -5.55112e-17
655 2 194.075 172.569 -5.55112e-17
656 1 71.5022 198.495 -5.55112e-17
657 2 2.57506 120.931 -5.55112e-17
658 1 22.4134 25.9329 -5.55112e-17
659 2 37.2835 86.729 -5.55112e-17
660 1 31.9721 19.1142 -5.55112e-17
661 1 142.624 161.98 -5.55112e-17
662 1 73.3643 104.948 -5.55112e-17
663 1 82.8491 20.5174 -5.55112e-17
664 1 114.222 12.3225 -5.55112e-17
665 1 97.4917 188.673 -5.55112e-17
666 2 41.2065 150.232 -5.55112e-17
667 1 41.1455 160.125 -5.55112e-17
668 2 119.117 209.993 -5.55112e-17
669 1 136.902 41.5111 -5.55112e-17
670 1 122.689 54.1452 -5.55112e-17
671 2 152.771 123.433 -5.55112e-17
672 1 92.1837 119.671 -5.55112e-17
673 1 127.165 23.4431 -5.55112e-17
674 1 68.7815 159.393 -5.55112e-17
675 1 130.417 81.6928 -5.55112e-17
676 1 1.14034 63.6223 -5.55112e-17
677 1 170.675 141.961 -5.55112e-17
678 1 204.575 170.661 -5.55112e-17
679 2 170.681 153.01 -5.55112e-17
680 1 35.9952 40.4571 -5.55112e-17
681 2 142.116 139.855 -5.55112e-17
682 1 15.0924 73.7054 -5.55112e-17
683 1 18.8055 35.249 -5.55112e-17
684 1 149.689 211.089 -5.55112e-17
685 1 102.446 110.063 -5.55112e-17
686 1 99.5891 56.3663 -5.55112e-17
687 1 189.528 152.855 -5.55112e-17
688 1 156.662 59.3342 -5.55112e-17
689 2 35.4242 83.1326 -5.55112e-17
690 1 92.7631 41.8674 -5.55112e-17
691 1 23.8563 163.304 -5.55112e-17
692 1 46.6636 200.36 -5.55112e-17
693 1 210.065 80.5089 -5.55112e-17
694 1 118.514 114.498 -5.55112e-17
695 1 79.4514 16.2878 -5.55112e-17
696 1 141.534 201.612 -5.55112e-17
697 1 124.515 66.5981 -5.55112e-17
698 1 3.16789 112.382 -5.55112e-17
699 1 206.689 213.437 -5.55112e-17
700 1 215.084 51.3899 -5.55112e-17
701 1 22.1154 53.7941 -5.55112e-17
702 1 50.434 48.8194 -5.55112e-17
703 2 198.094 29.8577 -5.55112e-17
704 1 5.36829 190.964 -5.55112e-17
705 2 63.0101 193.702 -5.55112e-17
706 1 17.1571 194.817 -5.55112e-17
707 1 116.205 58.8121 -5.55112e-17
708 1 143.349 142.559 -5.55112e-17
709 1 5.73266 12.2829 -5.55112e-17
710 1 110.859 22.6068 -5.55112e-17
711 1 140.679 208.336 -5.55112e-17
712 1 150.692 144.405 -5.55112e-17
713 1 52.5725 116.463 -5.55112e-17
714 1 189.783 119.973 -5.55112e-17
715 1 131.353 69.5334 -5.55112e-17
716 1 18.3437 117.241 -5.55112e-17
717 1 92.5702 56.2844 -5.55112e-17
718 1 24.761 31.4366 -5.55112e-17
719 2 98.2163 85.6447 -5.55112e-17
720 1 147.783 114.764 -5.55112e-17
721 1 218.59 163.552 -5.55112e-17
722 1 122.136 139.263 -5.55112e-17
723 2 36.5264 210.426 -5.55112e-17
724 1 218.989 141.116 -5.55112e-17
725 1 112.762 82.1815 -5.55112e-17
726 1 118.695 43.1577 -5.55112e-17
727 1 13.1501 92.6956 -5.55112e-17
728 2 47.93 139.918 -5.55112e-17
729 1 169.985 118.194 -5.55112e-17
730 1 114.577 204.466 -5.55112e-17
731 1 134.301 191.989 -5.55112e-17
732 1 73.6955 28.7593 -5.55112e-17
733 1 195.68 110.328 -5.55112e-17
734 1 31.9266 16.2674 -5.55112e-17
735 1 62.1731 115.428 -5.55112e-17
736 2 68.5554 30.5395 -5.55112e-17
737 1 187.615 175.574 -5.55112e-17
738 1 77.007 38.419 -5.55112e-17
739 1 87.9894 132.548 -5.55112e-17
740 1 31.3755 182.009 -5.55112e-17
741 2 27.9416 168.552 -5.55112e-17
742 1 25.3792 169.975 -5.55112e-17
743 1 192.332 15.9855 -5.55112e-17
744 2 150.763 65.9783 -5.55112e-17
745 1 74.347 78.9523 -5.55112e-17
746 1 67.4187 18.4922 -5.55112e-17
747 2 86.7912 121.066 -5.55112e-17
748 1 64.597 163.366 -5.55112e-17
749 1 37.3761 165.702 -5.55112e-17
750 1 121.512 112.342 -5.55112e-17
751 1 99.5135 39.5745 -5.55112e-17
752 1 60.4655 121.363 -5.55112e-17
753 1 89.8773 202.575 -5.55112e-17
754 1 72.7317 142.618 -5.55112e-17
755 1 13.1201 27.8798 -5.55112e-17
756 2 56.0141 163.068 -5.55112e-17
757 1 190.995 92.1112 -5.55112e-17
758 1 132.884 27.1791 -5.55112e-17
759 1 96.6802 11.2937 -5.55112e-17
760 1 121.106 18.9975 -5.55112e-17
761 1 8.1553 24.3458 -5.55112e-17
762 1 166.886 29.5978 -5.55112e-17
763 1 73.7414 117.163 -5.55112e-17
764 2 51.0316 164.002 -5.55112e-17
765 1 158.549 188.236 -5.55112e-17
766 1 12.3472 109.981 -5.55112e-17
767 1 131.304 213.5 -5.55112e-17
768 1 10.0358 179.27 -5.55112e-17
769 1 88.2447 124.402 -5.55112e-17
770 2 6.1712 98.0978 -5.55112e-17
771 1 115.965 17.2198 -5.55112e-17
772 1 65.5914 34.548 -5.55112e-17
773 1 90.7946 127.01 -5.55112e-17
774 1 4.97844 68.3494 -5.55112e-17
775 1 157.212 0.515453 -5.55112e-17
776 1 169.478 172.594 -5.55112e-17
777 1 166.827 68.3083 -5.55112e-17
778 1 104.875 191.816 -5.55112e-17
779 1 160.843 144.105 -5.55112e-17
780 1 33.5362 35.7154 -5.55112e-17
781 1 97.1596 128.478 -5.55112e-17
782 1 29.6826 87.9783 -5.55112e-17
783 1 134.175 163.154 -5.55112e-17
784 2 113.299 57.6345 -5.55112e-17
785 1 65.7549 31.8428 -5.55112e-17
786 1 149.025 3.22236 -5.55112e-17
787 1 178.279 166.644 -5.55112e-17
788 1 14.5826 170.977 -5.55112e-17
789 2 57.4737 91.1256 -5.55112e-17
790 1 98.2783 216.102 -5.55112e-17
791 2 74.3854 176.195 -5.55112e-17
792 2 18.3268 158.865 -5.55112e-17
793 2 136.818 204.464 -5.55112e-17
794 1 125.09 8.10603 -5.55112e-17
795 1 14.3887 176.641 -5.55112e-17
796 1 177.522 210.763 -5.55112e-17
797 1 94.3843 21.6522 -5.55112e-17
798 2 218.372 146.634 -5.55112e-17
799 2 201.056 67.816 -5.55112e-17
800 2 177.252 81.3386 -5.55112e-17
801 1 190.539 132.538 -5.55112e-17
802 1 57.0079 87.8929 -5.55112e-17
803 1 3.5418 166.094 -5.55112e-17
804 2 142.736 36.4725 -5.55112e-17
805 1 207.661 194.938 -5.55112e-17
806 1 186.479 132.616 -5.55112e-17
807 2 164.843 123.087 -5.55112e-17
808 1 99.0471 7.1864 -5.55112e-17
809 2 81.3369 86.4409 -5.55112e-17
810 1 111.847 86.447 -5.55112e-17
811 1 149.022 181.611 -5.55112e-17
812 1 144.743 24.2774 -5.55112e-17
813 2 53.7152 14.7479 -5.55112e-17
814 1 121.036 126.173 -5.55112e-17
815 1 134.962 31.2548 -5.55112e-17
816 1 156.044 149.103 -5.55112e-17
817 1 156.098 25.6669 -5.55112e-17
818 1 175.118 205.788 -5.55112e-17
819 1 54.6291 185.031 -5.55112e-17
820 1 203.644 12.2594 -5.55112e-17
821 1 18.7997 137.752 -5.55112e-17
822 2 13.7621 203.439 -5.55112e-17
823 2 142.313 194.149 -5.55112e-17
824 1 159.135 160.903 -5.55112e-17
825 1 126.621 38.8156 -5.55112e-17
826 1 108.868 93.7169 -5.55112e-17
827 1 62.4657 81.9024 -5.55112e-17
828 1 27.7482 151.684 -5.55112e-17
829 1 91.8293 25.3105 -5.55112e-17
830 1 127.156 34.5033 -5.55112e-17
831 1 172.884 104.915 -5.55112e-17
832 1 171.139 10.1603 -5.55112e-17
833 1 15.8519 196.661 -5.55112e-17
834 1 118.868 146.919 -5.55112e-17
835 1 95.7806 175.121 -5.55112e-17
836 1 154.477 1.80414 -5.55112e-17
837 1 55.1333 173.009 -5.55112e-17
838 1 29.4035 38.658 -5.55112e-17
839 2 71.7693 37.372 -5.55112e-17
840 1 171.31 177.516 -5.55112e-17
841 2 109.648 20.1533 -5.55112e-17
842 1 114.085 158.465 -5.55112e-17
843 2 42.0173 23.4742 -5.55112e-17
844 1 73.7854 207.842 -5.55112e-17
845 1 191.05 21.9344 -5.55112e-17
846 1 183.515 42.324 -5.55112e-17
847 1 133.842 218.219 -5.55112e-17
848 1 22.9632 133.727 -5.55112e-17
849 1 76.5011 16.6992 -5.55112e-17
850 1 68.61 72.5664 -5.55112e-17
851 1 36.8444 32.6051 -5.55112e-17
852 1 103.916 107.217 -5.55112e-17
853 1 98.6139 117.127 -5.55112e-17
854 1 13.75 160.913 -5.55112e-17
855 1 27.6984 184.764 -5.55112e-17
856 1 206.345 192.582 -5.55112e-17