ITEM: TIMESTEP
0
ITEM: NUMBER OF ATOMS
7200
ITEM: BOX BOUNDS xy xz yz pp pp pp
0.0000000000000000e+00 2.1900000000000000e+02 0.0000000000000000e+00
0.0000000000000000e+00 2.1900000000000000e+02 0.0000000000000000e+00
-3.6499999999999999e-01 3.6499999999999999e-01 0.0000000000000000e+00
ITEM: ATOMS id type x y z
1 1 10.3331 123.376 -5.55112e-17
2 1 21.7404 202.674 -5.55112e-17
3 1 10.7918 113.234 -5.55112e-17
4 1 32.0109 191.144 -5.55112e-17
5 1 42.2432 31.6164 -5.55112e-17
6 1 124.137 152.356 -5.55112e-17
7 1 155.783 72.2754 -5.55112e-17
8 2 65.6912 6.24073 -5.55112e-17
9 1 13.3994 175.038 -5.55112e-17
10 2 199.29 92.0835 -5.55112e-17
11 1 63.5832 39.5915 -5.55112e-17
12 1 203.999 45.3231 -5.55112e-17
13 2 89.9651 129.959 -5.55112e-17
14 1 157.461 207.405 -5.55112e-17
15 1 142.092 35.1583 -5.55112e-17
16 2 140.243 24.6501 -5.55112e-17
17 1 112.009 153.022 -5.55112e-17
18 2 8.74975 142.004 -5.55112e-17
19 1 151.546 134.835 -5.55112e-17
20 1 208.415 83.0891 -5.55112e-17
21 1 8.39934 195.778 -5.55112e-17
22 2 53.0184 12.9206 -5.55112e-17
23 2 67.9994 209.772 -5.55112e-17
24 1 84.8077 83.7156 -5.55112e-17
25 1 188.372 155.711 -5.55112e-17
26 2 40.4354 165.339 -5.55112e-17
27 1 102.363 108.142 -5.55112e-17
28 2 212.201 95.5994 -5.55112e-17
29 1 75.8048 135.232 -5.55112e-17
30 1 39.0045 107.095 -5.55112e-17
31 1 113.932 160.493 -5.55112e-17
32 1 43.7693 196.017 -5.55112e-17
33 1 6.70841 110.234 -5.55112e-17
34 1 110.347 92.4394 -5.55112e-17
35 1 50.4605 193.925 -5.55112e-17
36 1 185.274 51.4449 -5.55112e-17
37 2 217.454 86.1548 -5.55112e-17
38 1 154.95 157.162 -5.55112e-17
39 1 17.685 96.2017 -5.55112e-17
40 1 75.5036 138.067 -5.55112e-17
41 1 34.5727 46.9167 -5.55112e-17
42 1 177.898 200.802 -5.55112e-17
43 1 116.642 91.0283 -5.55112e-17
44 1 216.206 125.066 -5.55112e-17
45 1 59.46 112.469 -5.55112e-17
46 1 209.833 84.6552 -5.55112e-17
47 1 178.213 11.889 -5.55112e-17
48 2 93.0062 172.77 -5.55112e-17
49 1 187.079 166.909 -5.55112e-17
50 1 77.2577 38.332 -5.55112e-17
51 1 77.31 139.86 -5.55112e-17
52 1 163.712 36.4975 -5.55112e-17
53 1 141.663 53.4252 -5.55112e-17
54 1 33.5814 131.1 -5.55112e-17
55 1 95.1089 206.62 -5.55112e-17
56 1 209.468 126.087 -5.55112e-17
57 2 88.7257 37.6296 -5.55112e-17
58 1 106.444 135.013 -5.55112e-17
59 1 209.7 112.608 -5.55112e-17
60 2 23.9054 218.778 -5.55112e-17
61 2 164.997 197.09 -5.55112e-17
62 1 14.2081 62.0882 -5.55112e-17
63 1 48.2747 54.8636 -5.55112e-17
64 1 105.324 43.0099 -5.55112e-17
65 1 147.923 80.9486 -5.55112e-17
66 1 43.1331 14.3915 -5.55112e-17
67 1 175.264 92.1197 -5.55112e-17
68 1 106.682 14.704 -5.55112e-17
69 1 82.4387 164.491 -5.55112e-17
70 1 37.4366 28.1128 -5.55112e-17
71 1 44.3196 20.8056 -5.55112e-17
72 1 97.8708 13.2379 -5.55112e-17
73 1 73.9921 183.745 -5.55112e-17
74 1 73.2104 70.8413 -5.55112e-17
75 2 160.586 42.2215 -5.55112e-17
76 1 84.2561 134.093 -5.55112e-17
77 1 109.114 182.016 -5.55112e-17
78 1 106.761 62.3972 -5.55112e-17
79 2 49.5095 200.778 -5.55112e-17
80 1 163.365 168.559 -5.55112e-17
81 1 105.752 169.065 -5.55112e-17
82 1 11.4837 176.284 -5.55112e-17
83 2 142.232 29.5184 -5.55112e-17
84 1 36.8004 81.0548 -5.55112e-17
85 1 68.1999 22.896 -5.55112e-17
86 1 175.91 59.9091 -5.55112e-17
87 1 126.623 151.114 -5.55112e-17
88 1 85.0579 16.4792 -5.55112e-17
89 2 86.7965 129.629 -5.55112e-17
90 2 181.928 74.0296 -5.55112e-17
91 1 92.6894 8.70789 -5.55112e-17
92 2 47.2776 186.971 -5.55112e-17
93 1 138.07 74.0283 -5.55112e-17
94 2 141.43 61.8202 -5.55112e-17
95 1 89.8159 85.2018 -5.55112e-17
96 1 131.554 151.932 -5.55112e-17
97 1 113.704 69.3655 -5.55112e-17
98 1 11.403 137.965 -5.55112e-17
99 1 103.104 6.17446 -5.55112e-17
100 1 138.456 208.941 -5.55112e-17
101 1 13.357 208.648 -5.55112e-17
102 1 30.4752 52.2254 -5.55112e-17
103 1 32.3802 45.7001 -5.55112e-17
104 1 18.7362 161.005 -5.55112e-17
105 1 149.968 43.8434 -5.55112e-17
106 1 104.902 182.74 -5.55112e-17
107 2 141.347 67.7989 -5.55112e-17
108 1 89.9101 72.1099 -5.55112e-17
109 1 126.148 112.884 -5.55112e-17
110 1 8.46839 200.983 -5.55112e-17
111 1 111.916 28.238 -5.55112e-17
112 1 144.181 104.422 -5.55112e-17
113 1 25.4934 174.068 -5.55112e-17
114 1 181.451 173.304 -5.55112e-17
115 1 204.349 124.634 -5.55112e-17
116 2 105.937 155.306 -5.55112e-17
117 1 12.2958 80.8376 -5.55112e-17
118 1 99.3103 151.966 -5.55112e-17
119 2 141.423 40.6341 -5.55112e-17
120 1 150.084 82.416 -5.55112e-17
121 1 183.707 156.671 -5.55112e-17
122 1 208.295 29.3586 -5.55112e-17
123 1 0.284699 105.552 -5.55112e-17
124 1 66.1698 167.955 -5.55112e-17
125 1 170.422 69.4153 -5.55112e-17
126 1 54.9567 212.674 -5.55112e-17
127 1 74.3747 66.1655 -5.55112e-17
128 1 74.3789 11.7565 -5.55112e-17
129 1 29.7073 171.833 -5.55112e-17
130 1 209.744 167.882 -5.55112e-17
131 1 132.222 87.1137 -5.55112e-17
132 2 125.341 41.8745 -5.55112e-17
133 1 32.9796 119.557 -5.55112e-17
134 1 4.94906 19.4626 -5.55112e-17
135 1 98.4151 116.479 -5.55112e-17
136 1 12.55 130.033 -5.55112e-17
137 1 64.0026 53.8011 -5.55112e-17
138 1 8.86827 133.045 -5.55112e-17
139 1 51.5106 64.1329 -5.55112e-17
140 2 93.914 32.0605 -5.55112e-17
141 1 84.1197 76.8925 -5.55112e-17
142 2 16.6114 68.8045 -5.55112e-17
143 1 105.754 148.168 -5.55112e-17
144 2 80.6808 99.9578 -5.55112e-17
145 1 155.964 133.112 -5.55112e-17
146 1 164.17 81.0446 -5.55112e-17
147 1 129.101 207.952 -5.55112e-17
148 1 118.758 8.17046 -5.55112e-17
149 1 126.807 89.0763 -5.55112e-17
150 1 81.5595 217.319 -5.55112e-17
151 1 15.9754 117.03 -5.55112e-17
152 1 48.1854 96.5301 -5.55112e-17
153 2 209.411 92.3518 -5.55112e-17
154 1 216.247 133.988 -5.55112e-17
155 1 180.591 101.236 -5.55112e-17
156 2 12.0178 67.097 -5.55112e-17
157 1 204.514 129.782 -5.55112e-17
158 1 116.645 140.228 -5.55112e-17
159 1 70.0603 140.136 -5.55112e-17
160 1 158.145 123.606 -5.55112e-17
161 1 22.7327 60.7296 -5.55112e-17
162 1 154.071 112.31 -5.55112e-17
163 1 150.743 209.782 -5.55112e-17
164 1 149.719 2.24131 -5.55112e-17
165 1 171.551 208.354 -5.55112e-17
166 2 181.035 16.0605 -5.55112e-17
167 1 179.297 147.478 -5.55112e-17
168 1 35.4109 165.544 -5.55112e-17
169 1 45.6963 124.352 -5.55112e-17
170 1 3.03802 145.034 -5.55112e-17
171 1 81.9962 67.6398 -5.55112e-17
172 1 196.665 128.008 -5.55112e-17
173 1 104.727 159.958 -5.55112e-17
174 1 15.0519 194.053 -5.55112e-17
175 2 195.307 210.391 -5.55112e-17
176 1 208.756 110.265 -5.55112e-17
177 2 72.4636 216.273 -5.55112e-17
178 1 199.645 58.175 -5.55112e-17
179 1 217.129 62.2599 -5.55112e-17
180 1 214.269 98.6739 -5.55112e-17
181 1 114.689 157.968 -5.55112e-17
182 2 17.503 45.6299 -5.55112e-17
183 1 21.6052 186.429 -5.55112e-17
184 1 112.946 203.365 -5.55112e-17
185 2 111.034 59.41 -5.55112e-17
186 2 128.526 63.3948 -5.55112e-17
187 1 46.1995 68.4561 -5.55112e-17
188 1 161.828 148.745 -5.55112e-17
189 1 191.274 143.889 -5.55112e-17
190 2 216.043 57.4615 -5.55112e-17
191 1 144.838 74.4942 -5.55112e-17
192 2 104.419 132.796 -5.55112e-17
193 2 146.019 119.674 -5.55112e-17
194 1 56.4298 19.2212 -5.55112e-17
195 1 99.6635 91.9967 -5.55112e-17
196 1 38.5078 96.5563 -5.55112e-17
197 1 164.619 148.943 -5.55112e-17
198 2 93.5522 188.616 -5.55112e-17
199 1 92.7954 50.6901 -5.55112e-17
200 1 136.078 201.87 -5.55112e-17
201 2 40.5362 173.503 -5.55112e-17
202 1 61.1884 63.4255 -5.55112e-17
203 1 126.939 209.207 -5.55112e-17
204 1 58.5479 124.186 -5.55112e-17
205 2 162.635 48.1754 -5.55112e-17
206 1 149.409 73.5464 -5.55112e-17
207 1 56.2954 36.3458 -5.55112e-17
208 1 115.696 132.692 -5.55112e-17
209 1 217.814 194.111 -5.55112e-17
210 1 217.409 147.106 -5.55112e-17
211 2 122.889 130.942 -5.55112e-17
212 1 153.249 56.7535 -5.55112e-17
213 1 114.338 110.61 -5.55112e-17
214 1 148.737 211.228 -5.55112e-17
215 1 94.7 196.758 -5.55112e-17
216 1 14.0995 31.3517 -5.55112e-17
217 1 192.752 18.5409 -5.55112e-17
218 2 150.069 31.3042 -5.55112e-17
219 1 123.784 179.427 -5.55112e-17
220 2 52.9269 210.84 -5.55112e-17
221 1 140.849 103.728 -5.55112e-17
222 1 19.6951 193.367 -5.55112e-17
223 1 173.611 76.7692 -5.55112e-17
224 2 157.667 120.668 -5.55112e-17
225 1 152.459 217.189 -5.55112e-17
226 1 3.43087 6.10806 -5.55112e-17
227 2 111.44 108.724 -5.55112e-17
228 1 71.9282 12.5917 -5.55112e-17
229 1 72.5626 68.214 -5.55112e-17
230 1 161.765 212.701 -5.55112e-17
231 1 34.4056 18.9448 -5.55112e-17
232 1 82.8279 158.82 -5.55112e-17
233 1 193.651 105.276 -5.55112e-17
234 1 114.425 182.786 -5.55112e-17
235 1 6.76803 89.8501 -5.55112e-17
236 1 21.4247 155.108 -5.55112e-17
237 1 103.222 149.625 -5.55112e-17
238 1 135.464 215.994 -5.55112e-17
239 2 196.406 7.35802 -5.55112e-17
240 1 61.2323 17.6304 -5.55112e-17
241 2 55.4251 122.242 -5.55112e-17
242 2 207.28 128.175 -5.55112e-17
243 2 38.4034 169.644 -5.55112e-17
244 1 99.9401 184.211 -5.55112e-17
245 1 199.636 55.748 -5.55112e-17
246 1 210.137 65.3989 -5.55112e-17
247 1 65.3172 68.5255 -5.55112e-17
248 1 15.6362 204.601 -5.55112e-17
249 1 12.1835 158.158 -5.55112e-17
250 2 93.5804 113.808 -5.55112e-17
251 1 85.52 79.2431 -5.55112e-17
252 1 190.371 130.743 -5.55112e-17
253 1 23.3305 85.5348 -5.55112e-17
254 2 151.107 58.3766 -5.55112e-17
255 1 136.993 117.973 -5.55112e-17
256 1 25.3676 181.083 -5.55112e-17
257 1 7.47729 45.168 -5.55112e-17
258 2 115.952 7.34493 -5.55112e-17
259 1 48.0071 218.411 -5.55112e-17
260 1 125.615 185.994 -5.55112e-17
261 1 168.631 212.204 -5.55112e-17
262 1 118.345 158.376 -5.55112e-17
263 1 6.88272 82.2229 -5.55112e-17
264 1 88.3453 205.589 -5.55112e-17
265 1 122.648 19.822 -5.55112e-17
266 1 160.549 150.773 -5.55112e-17
267 1 114.907 3.99314 -5.55112e-17
268 1 89.0827 114.764 -5.55112e-17
269 1 118.75 155.546 -5.55112e-17
270 1 104.373 216.924 -5.55112e-17
271 1 154.389 218.615 -5.55112e-17
272 1 132.94 59.7268 -5.55112e-17
273 1 204.58 25.6379 -5.55112e-17
274 2 146.747 64.4533 -5.55112e-17
275 1 193.769 140.035 -5.55112e-17
276 2 13.4579 85.94 -5.55112e-17
277 2 110.09 211.655 -5.55112e-17
278 1 18.2527 106.03 -5.55112e-17
279 2 4.46619 31.8127 -5.55112e-17
280 1 123.819 92.3129 -5.55112e-17
281 1 178.683 69.8192 -5.55112e-17
282 1 8.97842 206.512 -5.55112e-17
283 1 155.399 15.4478 -5.55112e-17
284 1 63.1866 164.5 -5.55112e-17
285 1 178.442 27.0977 -5.55112e-17
286 2 177.698 45.1672 -5.55112e-17
287 1 56.1089 16.7933 -5.55112e-17
288 1 165.526 185.566 -5.55112e-17
289 1 163.35 40.4178 -5.55112e-17
290 1 110.202 95.038 -5.55112e-17
291 1 181.601 41.9148 -5.55112e-17
292 2 1.08329 80.376 -5.55112e-17
293 2 158.157 14.8471 -5.55112e-17
294 1 42.5334 122.557 -5.55112e-17
295 1 35.7447 162.798 -5.55112e-17
296 1 88.0166 0.172232 -5.55112e-17
297 1 61.6095 134.684 -5.55112e-17
298 1 189.199 158.062 -5.55112e-17
299 1 72.8031 75.1834 -5.55112e-17
300 2 59.7601 180.726 -5.55112e-17
301 1 199.771 183.037 -5.55112e-17
302 1 141.68 87.2541 -5.55112e-17
303 2 60.5927 49.8135 -5.55112e-17
304 2 156.788 155.06 -5.55112e-17
305 1 42.2344 65.7215 -5.55112e-17
306 1 161.357 111.956 -5.55112e-17
307 1 82.6486 122.105 -5.55112e-17
308 1 76.0203 82.9938 -5.55112e-17
309 2 150.177 95.6051 -5.55112e-17
310 1 200.529 19.0124 -5.55112e-17
311 1 146.089 188.596 -5.55112e-17
312 1 151.118 77.1146 -5.55112e-17
313 2 177.588 115.104 -5.55112e-17
314 1 5.30962 0.0622622 -5.55112e-17
315 1 154.235 98.993 -5.55112e-17
316 1 104.097 94.6468 -5.55112e-17
317 1 65.7259 149.45 -5.55112e-17
318 1 89.0946 142.035 -5.55112e-17
319 1 3.48377 177.715 -5.55112e-17
320 1 108.266 55.4772 -5.55112e-17
321 1 129.964 68.0401 -5.55112e-17
322 1 9.34214 20.5768 -5.55112e-17
323 1 170.25 92.1704 -5.55112e-17
324 1 52.7142 106.126 -5.55112e-17
325 1 28.5369 117.524 -5.55112e-17
326 1 114.411 142.216 -5.55112e-17
327 2 18.0095 211.176 -5.55112e-17
328 1 161.679 215.364 -5.55112e-17
329 2 206.722 45.2113 -5.55112e-17
330 1 57.2624 173.641 -5.55112e-17
331 1 203.515 191.067 -5.55112e-17
332 2 202.683 195.773 -5.55112e-17
333 1 93.4557 210.591 -5.55112e-17
334 1 58.6427 211.404 -5.55112e-17
335 1 39.8981 125.786 -5.55112e-17
336 1 79.4027 197.739 -5.55112e-17
337 1 69.62 1.75805 -5.55112e-17
338 1 86.8129 177.816 -5.55112e-17
339 1 90.8968 70.1958 -5.55112e-17
340 1 162.177 68.1094 -5.55112e-17
341 1 209.4 198.443 -5.55112e-17
342 1 79.3098 155.523 -5.55112e-17
343 1 26.1069 91.3119 -5.55112e-17
344 1 110.021 128.604 -5.55112e-17
345 1 2.73816 125.181 -5.55112e-17
346 1 199.122 192.52 -5.55112e-17
347 1 190.338 203.306 -5.55112e-17
348 1 3.71183 120.53 -5.55112e-17
349 1 132.257 179.085 -5.55112e-17
350 2 77.6367 157.792 -5.55112e-17
351 1 216.81 46.2586 -5.55112e-17
352 1 46.0673 79.4956 -5.55112e-17
353 1 109.436 153.949 -5.55112e-17
354 1 212.977 61.9816 -5.55112e-17
355 1 206.389 204.35 -5.55112e-17
356 1 89.289 167.245 -5.55112e-17
357 1 90.9367 164.884 -5.55112e-17
358 1 69.7777 135.452 -5.55112e-17
359 1 121.983 50.4931 -5.55112e-17
360 1 28.1156 187.547 -5.55112e-17
361 1 192.771 30.3264 -5.55112e-17
362 1 68.3148 80.0881 -5.55112e-17
363 1 136.915 211.121 -5.55112e-17
364 2 28.3669 207.233 -5.55112e-17
365 1 210.039 67.8778 -5.55112e-17
366 1 148.77 48.8531 -5.55112e-17
367 1 39.667 54.597 -5.55112e-17
368 1 189.468 137.628 -5.55112e-17
369 2 156.168 160.157 -5.55112e-17
370 1 133.997 164.728 -5.55112e-17
371 1 101.472 126.867 -5.55112e-17
372 2 112.067 53.9353 -5.55112e-17
373 2 115.465 57.021 -5.55112e-17
374 1 138.002 68.353 -5.55112e-17
375 1 138.328 172.883 -5.55112e-17
376 1 109.662 113.301 -5.55112e-17
377 1 133.604 62.2656 -5.55112e-17
378 1 54.9651 101.85 -5.55112e-17
379 1 54.9454 127.005 -5.55112e-17
380 1 182.819 20.9858 -5.55112e-17
381 1 19.7973 130.756 -5.55112e-17
382 1 183.699 186.831 -5.55112e-17
383 1 175.557 155.05 -5.55112e-17
384 1 34.9175 158.817 -5.55112e-17
385 1 153.103 16.6555 -5.55112e-17
386 2 167.518 149.371 -5.55112e-17
387 1 65.3248 19.5993 -5.55112e-17
388 1 77.5127 11.8597 -5.55112e-17
389 1 85.3807 196.938 -5.55112e-17
390 2 55.8867 166.073 -5.55112e-17
391 2 25.7592 212.551 -5.55112e-17
392 1 185.396 39.8055 -5.55112e-17
393 1 211.966 48.7169 -5.55112e-17
394 1 213.338 210.707 -5.55112e-17
395 1 115.237 202.83 -5.55112e-17
396 1 122.351 184.994 -5.55112e-17
397 1 80.2856 174.926 -5.55112e-17
398 1 92.8206 71.65 -5.55112e-17
399 1 123.742 197.469 -5.55112e-17
400 1 211.468 43.9797 -5.55112e-17
401 1 102.522 111.292 -5.55112e-17
402 2 145.473 218.113 -5.55112e-17
403 1 4.10055 139.477 -5.55112e-17
404 1 193.107 197.77 -5.55112e-17
405 1 109.777 208.863 -5.55112e-17
406 1 121.452 161.805 -5.55112e-17
407 2 206.614 85.2874 -5.55112e-17
408 1 124.517 165.489 -5.55112e-17
409 1 126.274 55.805 -5.55112e-17
410 1 194.937 47.5935 -5.55112e-17
411 1 109.417 110.728 -5.55112e-17
412 1 212.538 15.9775 -5.55112e-17
413 1 30.9357 162.199 -5.55112e-17
414 1 195.182 60.4966 -5.55112e-17
415 1 157.841 76.6082 -5.55112e-17
416 1 170.259 118.287 -5.55112e-17
417 1 96.5552 143.995 -5.55112e-17
418 2 209.185 217.405 -5.55112e-17
419 1 106.151 34.3599 -5.55112e-17
420 2 69.123 105.043 -5.55112e-17
421 1 198.291 145.83 -5.55112e-17
422 1 163.68 65.3213 -5.55112e-17
423 2 126.874 141.423 -5.55112e-17
424 1 108.607 7.37475 -5.55112e-17
425 1 70.7554 7.19624 -5.55112e-17
426 1 120.829 139.787 -5.55112e-17
427 1 186.651 86.8223 -5.55112e-17
428 1 190.611 25.4529 -5.55112e-17
429 1 21.7724 197.324 -5.55112e-17
430 1 24.3779 148.485 -5.55112e-17
431 1 97.8446 131.391 -5.55112e-17
432 1 40.7306 92.6806 -5.55112e-17
433 1 91.5942 186.063 -5.55112e-17
434 1 35.0717 49.7177 -5.55112e-17
435 1 85.7937 105.35 -5.55112e-17
436 1 19.1233 140.558 -5.55112e-17
437 1 188.964 6.54779 -5.55112e-17
438 2 68.0417 130.851 -5.55112e-17
439 1 198.465 157.532 -5.55112e-17
440 1 149.251 199.61 -5.55112e-17
441 1 97.0724 194.706 -5.55112e-17
442 1 136.413 16.3481 -5.55112e-17
443 1 143.395 55.3201 -5.55112e-17
444 1 137.575 51.0338 -5.55112e-17
445 1 51.5181 81.1322 -5.55112e-17
446 1 102.21 26.5319 -5.55112e-17
447 1 42.1488 197.748 -5.55112e-17
448 1 190.29 22.9711 -5.55112e-17
449 1 48.3072 23.3701 -5.55112e-17
450 1 174.234 40.239 -5.55112e-17
451 1 214.022 3.18642 -5.55112e-17
452 1 45.4419 203.465 -5.55112e-17
453 1 5.21393 209.722 -5.55112e-17
454 1 65.4401 56.5037 -5.55112e-17
455 1 177.874 0.85522 -5.55112e-17
456 1 104.085 127.531 -5.55112e-17
457 1 27.7263 181.986 -5.55112e-17
458 1 70.0838 180.995 -5.55112e-17
459 1 52.2274 10.084 -5.55112e-17
460 1 210.325 6.00746 -5.55112e-17
461 1 107.121 201.028 -5.55112e-17
462 1 188.592 126.051 -5.55112e-17
463 1 148.047 57.284 -5.55112e-17
464 1 18.3559 177.038 -5.55112e-17
465 1 22.1988 147.241 -5.55112e-17
466 1 165.189 114.688 -5.55112e-17
467 1 48.4199 108.01 -5.55112e-17
468 1 8.42341 126.255 -5.55112e-17
469 1 167.912 60.0368 -5.55112e-17
470 1 39.1164 69.6448 -5.55112e-17
471 1 42.4639 91.0937 -5.55112e-17
472 1 153.171 101.151 -5.55112e-17
473 1 62.3349 128.043 -5.55112e-17
474 1 175.896 69.6826 -5.55112e-17
475 1 99.3627 122.454 -5.55112e-17
476 2 29.2266 190.01 -5.55112e-17
477 1 174.884 129.144 -5.55112e-17
478 1 200.382 76.0621 -5.55112e-17
479 1 139.727 199.703 -5.55112e-17
480 1 120.785 166.814 -5.55112e-17
481 1 139.016 99.0258 -5.55112e-17
482 1 113.929 51.6644 -5.55112e-17
483 1 165.843 168.075 -5.55112e-17
484 2 42.8693 151.272 -5.55112e-17
485 1 111.599 10.645 -5.55112e-17
486 1 88.5547 44.879 -5.55112e-17
487 1 45.0298 170.371 -5.55112e-17
488 1 63.3418 64.5523 -5.55112e-17
489 1 41.6539 70.2076 -5.55112e-17
490 1 169.063 130.549 -5.55112e-17
491 1 141.335 134.425 -5.55112e-17
492 1 90.0762 104.705 -5.55112e-17
493 1 16.1986 215.264 -5.55112e-17
494 1 154.412 8.9022 -5.55112e-17
495 1 95.8919 107.089 -5.55112e-17
496 2 24.963 166.437 -5.55112e-17
497 1 169.378 50.6334 -5.55112e-17
498 1 155.277 41.9623 -5.55112e-17
499 2 74.8603 73.2582 -5.55112e-17
500 1 43.7636 26.5792 -5.55112e-17
501 2 178.656 62.668 -5.55112e-17
502 2 62.7499 146.927 -5.55112e-17
503 1 178.827 172.835 -5.55112e-17
504 1 201.26 5.15836 -5.55112e-17
505 1 141.672 19.0751 -5.55112e-17
506 1 30.6219 59.8821 -5.55112e-17
507 1 138.85 128.221 -5.55112e-17
508 1 122.536 33.9502 -5.55112e-17
509 2 3.91152 38.6459 -5.55112e-17
510 2 215.068 25.4082 -5.55112e-17
511 1 148.338 23.2942 -5.55112e-17
512 2 16.9423 24.3634 -5.55112e-17
513 1 71.7244 91.603 -5.55112e-17
514 1 39.9371 218.323 -5.55112e-17
515 1 56.9812 21.7815 -5.55112e-17
516 1 171.593 71.6498 -5.55112e-17
517 1 204.267 186.768 -5.55112e-17
518 2 47.1037 8.18134 -5.55112e-17
519 1 2.07607 175.693 -5.55112e-17
520 2 47.1849 154.441 -5.55112e-17
521 1 63.6667 8.74937 -5.55112e-17
522 1 174.241 30.5191 -5.55112e-17
523 1 155.402 80.6594 -5.55112e-17
524 1 53.2586 137.794 -5.55112e-17
525 1 201.231 67.9308 -5.55112e-17
526 1 2.77802 155.494 -5.55112e-17
527 1 7.39714 186.662 -5.55112e-17
528 1 10.0323 186.499 -5.55112e-17
529 1 59.9875 28.7126 -5.55112e-17
530 1 171.057 76.7005 -5.55112e-17
531 1 9.2694 213.295 -5.55112e-17
532 1 142.997 43.1705 -5.55112e-17
533 1 51.3124 150.891 -5.55112e-17
534 1 64.1387 45.2421 -5.55112e-17
535 1 82.4535 61.3019 -5.55112e-17
536 1 113.178 5.81215 -5.55112e-17
537 1 157.971 138.197 -5.55112e-17
538 1 79.5555 128.659 -5.55112e-17
539 1 41.2593 77.7481 -5.55112e-17
540 1 33.158 164.016 -5.55112e-17
541 1 49.8007 211.135 -5.55112e-17
542 1 118.604 95.5309 -5.55112e-17
543 1 218.63 187.223 -5.55112e-17
544 1 199.202 115.833 -5.55112e-17
545 1 35.004 144.111 -5.55112e-17
546 1 58.9126 26.4479 -5.55112e-17
547 1 115.182 102.68 -5.55112e-17
548 1 149.053 36.7881 -5.55112e-17
549 1 57.2778 50.6213 -5.55112e-17
550 2 64.8353 26.5469 -5.55112e-17
551 2 193.789 15.3178 -5.55112e-17
552 2 176.255 54.5389 -5.55112e-17
553 1 200.073 99.3838 -5.55112e-17
554 1 162.421 14.7477 -5.55112e-17
555 2 56.4905 197.27 -5.55112e-17
556 1 203.743 159.951 -5.55112e-17
557 1 154.624 28.2617 -5.55112e-17
558 1 131.887 142.852 -5.55112e-17
559 1 127.141 214.29 -5.55112e-17
560 1 207.924 166.367 -5.55112e-17
561 1 64.6936 11.3675 -5.55112e-17
562 1 55.0751 48.1124 -5.55112e-17
563 2 95.614 28.7788 -5.55112e-17
564 1 61.3521 117.935 -5.55112e-17
565 1 43.8662 54.7161 -5.55112e-17
566 1 160.561 176.39 -5.55112e-17
567 1 124.103 89.7632 -5.55112e-17
568 1 69.9813 185.485 -5.55112e-17
569 1 179.529 188.87 -5.55112e-17
570 1 9.34881 150.149 -5.55112e-17
571 1 118.785 116.55 -5.55112e-17
572 1 97.9581 50.3096 -5.55112e-17
573 1 104.91 26.7273 -5.55112e-17
574 1 59.726 83.2931 -5.55112e-17
575 1 153.487 21.3282 -5.55112e-17
576 1 11.5585 21.3595 -5.55112e-17
577 1 185.237 67.3408 -5.55112e-17
578 1 214.173 20.4681 -5.55112e-17
579 1 109.169 69.1414 -5.55112e-17
580 1 7.93045 28.8865 -5.55112e-17
581 1 154.735 216.291 -5.55112e-17
582 1 35.3584 6.78376 -5.55112e-17
583 1 159.695 211.332 -5.55112e-17
584 2 87.4993 137.464 -5.55112e-17
585 1 115.407 165.209 -5.55112e-17
586 1 134.482 64.9211 -5.55112e-17
587 1 162.78 194.491 -5.55112e-17
588 1 122.514 192.451 -5.55112e-17
589 1 127.633 26.487 -5.55112e-17
590 1 144.96 142.719 -5.55112e-17
591 1 85.4603 29.2478 -5.55112e-17
592 1 100.04 107.017 -5.55112e-17
593 1 148.494 59.7549 -5.55112e-17
594 1 7.34915 72.8897 -5.55112e-17
595 1 147.805 83.3743 -5.55112e-17
596 1 172.432 191.709 -5.55112e-17
597 2 208.75 151.743 -5.55112e-17
598 1 53.1664 208.183 -5.55112e-17
599 1 210.769 108.519 -5.55112e-17
600 1 194.455 5.2145 -5.55112e-17
601 1 184.048 12.9475 -5.55112e-17
602 1 66.7416 35.6454 -5.55112e-17
603 1 79.2508 51.4616 -5.55112e-17
604 1 172.319 175.901 -5.55112e-17
605 2 151.557 87.223 -5.55112e-17
606 1 151.896 142.089 -5.55112e-17
607 2 193.783 212.981 -5.55112e-17
608 1 29.9932 102.62 -5.55112e-17
609 1 198.762 84.3847 -5.55112e-17
610 1 65.3803 3.45615 -5.55112e-17
611 1 180.033 67.7947 -5.55112e-17
612 1 174.274 177.574 -5.55112e-17
613 1 21.8796 34.441 -5.55112e-17
614 2 12.4152 121.235 -5.55112e-17
615 1 150.222 207.314 -5.55112e-17
616 1 9.30112 116.697 -5.55112e-17
617 1 47.8496 70.5961 -5.55112e-17
618 1 193.73 12.2704 -5.55112e-17
619 1 112.363 93.9612 -5.55112e-17
620 1 3.50131 92.5515 -5.55112e-17
621 1 171.86 78.9585 -5.55112e-17
622 1 70.2557 75.7468 -5.55112e-17
623 1 15.3261 120.561 -5.55112e-17
624 1 181.913 188.293 -5.55112e-17
625 1 190.29 180.616 -5.55112e-17
626 1 54.1445 103.874 -5.55112e-17
627 1 90.4596 171.685 -5.55112e-17
628 1 38.644 191.666 -5.55112e-17
629 1 7.65376 48.1695 -5.55112e-17
630 2 197.76 36.8917 -5.55112e-17
631 1 125.74 196.051 -5.55112e-17
632 1 177.192 109.724 -5.55112e-17
633 1 188.483 61.1981 -5.55112e-17
634 1 89.6304 54.6654 -5.55112e-17
635 1 190.55 146.765 -5.55112e-17
636 1 136.076 162.039 -5.55112e-17
637 1 60.8109 80.9481 -5.55112e-17
638 1 56.9962 6.57443 -5.55112e-17
639 2 8.90828 62.262 -5.55112e-17
640 1 84.8173 136.481 -5.55112e-17
641 1 80.7236 91.2379 -5.55112e-17
642 1 206.054 179.816 -5.55112e-17
643 2 216.856 120.483 -5.55112e-17
644 1 66.2719 49.9776 -5.55112e-17
645 1 195.393 27.9903 -5.55112e-17
646 2 202.502 97.5109 -5.55112e-17
647 1 32.8796 125.879 -5.55112e-17
648 1 144.628 198.3 -5.55112e-17
649 2 51.6923 67.7807 -5.55112e-17
650 1 103.559 83.1685 -5.55112e-17
651 1 147.56 206.123 -5.55112e-17
652 1 155.109 25.9567 -5.55112e-17
653 1 6.72768 59.7588 -5.55112e-17
654 1 104.304 67.618 -5.55112e-17
655 2 46.5451 210.403 -5.55112e-17
656 1 93.0125 202.549 -5.55112e-17
657 2 77.4802 163.874 -5.55112e-17
658 1 218.53 212.471 -5.55112e-17
659 2 209.165 104.982 -5.55112e-17
660 1 199.239 2.98258 -5.55112e-17
661 1 205.987 134.371 -5.55112e-17
662 1 69.4254 171.445 -5.55112e-17
663 1 76.8479 132.682 -5.55112e-17
664 1 112.254 209.599 -5.55112e-17
665 1 141.886 157.009 -5.55112e-17
666 2 113.328 12.5935 -5.55112e-17
667 1 52.9968 166.795 -5.55112e-17
668 2 103.685 180.293 -5.55112e-17
669 1 113.62 59.2094 -5.55112e-17
670 1 135.039 35.4222 -5.55112e-17
671 2 137.055 71.587 -5.55112e-17
672 1 28.8327 131.975 -5.55112e-17
673 1 153.588 73.2846 -5.55112e-17
674 1 67.8847 150.947 -5.55112e-17
675 1 39.6833 86.8423 -5.55112e-17
676 1 204.023 50.1797 -5.55112e-17
677 1 173.293 137.957 -5.55112e-17
678 1 70.3346 167.284 -5.55112e-17
679 2 22.2325 150.506 -5.55112e-17
680 1 93.2342 6.55302 -5.55112e-17
681 2 94.9616 101.462 -5.55112e-17
682 1 44.0455 105.983 -5.55112e-17
683 1 196.872 67.5824 -5.55112e-17
684 1 154.195 120.203 -5.55112e-17
685 1 104.796 212.31 -5.55112e-17
686 1 155.839 74.941 -5.55112e-17
687 1 193.184 145.479 -5.55112e-17
688 1 117.571 41.8595 -5.55112e-17
689 2 1.04818 90.9789 -5.55112e-17
690 1 43.1434 76.0448 -5.55112e-17
691 1 105.488 79.0556 -5.55112e-17
692 1 35.2319 181.637 -5.55112e-17
693 1 157.275 27.3818 -5.55112e-17
694 1 85.9794 74.9064 -5.55112e-17
695 1 84.9145 212.045 -5.55112e-17
696 1 213.381 181.493 -5.55112e-17
697 1 146.945 20.5537 -5.55112e-17
698 1 87.0772 140.394 -5.55112e-17
699 1 62.0916 41.5323 -5.55112e-17
700 1 121.774 93.7696 -5.55112e-17
701 1 17.7383 66.0499 -5.55112e-17
702 1 194.084 92.3475 -5.55112e-17
703 2 163.865 19.9467 -5.55112e-17
704 1 38.1484 9.58122 -5.55112e-17
705 2 61.2329 123.173 -5.55112e-17
706 1 39.715 5.21154 -5.55112e-17
707 1 56.6862 52.9553 -5.55112e-17
708 1 98.3226 89.9146 -5.55112e-17
709 1 3.11033 42.2627 -5.55112e-17
710 1 137.444 34.3185 -5.55112e-17
711 1 99.9538 141.009 -5.55112e-17
712 1 212.592 139.977 -5.55112e-17
713 1 39.1 133.559 -5.55112e-17
714 1 210.722 147.409 -5.55112e-17
715 1 137.346 199.334 -5.55112e-17
716 1 55.5769 110.779 -5.55112e-17
717 1 97.3764 216.623 -5.55112e-17
718 1 15.577 101.763 -5.55112e-17
719 2 132.779 67.3924 -5.55112e-17
720 1 36.0837 95.8699 -5.55112e-17
721 1 195.679 144.212 -5.55112e-17
722 1 216.252 160.867 -5.55112e-17
723 2 76.9127 41.6862 -5.55112e-17
724 1 1.92345 194.124 -5.55112e-17
725 1 44.9618 121.959 -5.55112e-17
726 1 130.224 177.633 -5.55112e-17
727 1 177.78 162.418 -5.55112e-17
728 2 16.0632 136.114 -5.55112e-17
729 1 180.073 167.64 -5.55112e-17
730 1 168.171 186.132 -5.55112e-17
731 1 179.368 55.2426 -5.55112e-17
732 1 64.7885 84.2685 -5.55112e-17
733 1 8.02878 137.15 -5.55112e-17
734 1 211.939 46.3134 -5.55112e-17
735 1 89.0305 176.239 -5.55112e-17
736 2 39.6474 29.9357 -5.55112e-17
737 1 115.933 117.752 -5.55112e-17
738 1 177.347 96.6701 -5.55112e-17
739 1 118.025 148.22 -5.55112e-17
740 1 58.9696 171.543 -5.55112e-17
741 2 26.5879 9.50639 -5.55112e-17
742 1 215.578 15.1807 -5.55112e-17
743 1 29.9691 67.498 -5.55112e-17
744 2 29.1903 57.0465 -5.55112e-17
745 1 182.746 131.411 -5.55112e-17
746 1 73.3318 42.287 -5.55112e-17
747 2 132.976 43.7037 -5.55112e-17
748 1 78.319 188.411 -5.55112e-17
749 1 176.843 208.003 -5.55112e-17
750 1 63.7804 169.189 -5.55112e-17
751 1 21.5787 93.7607 -5.55112e-17
752 1 2.46747 103.932 -5.55112e-17
753 1 197.672 173.261 -5.55112e-17
754 1 47.5022 128.503 -5.55112e-17
755 1 31.2118 20.0088 -5.55112e-17
756 2 60.6647 168.935 -5.55112e-17
757 1 5.94043 9.72417 -5.55112e-17
758 1 126.133 28.4339 -5.55112e-17
759 1 106.954 207.82 -5.55112e-17
760 1 132.227 171.236 -5.55112e-17
761 1 188.884 144.765 -5.55112e-17
762 1 200.497 179.954 -5.55112e-17
763 1 4.32168 135.192 -5.55112e-17
764 2 53.0367 189.429 -5.55112e-17
765 1 154.031 128.161 -5.55112e-17
766 1 48.0556 177.272 -5.55112e-17
767 1 87.0226 77.5035 -5.55112e-17
768 1 184.338 104.235 -5.55112e-17
769 1 41.2043 56.5965 -5.55112e-17
770 2 75.0696 173.266 -5.55112e-17
771 1 83.524 209.748 -5.55112e-17
772 1 189.051 42.0701 -5.55112e-17
773 1 66.9327 158.433 -5.55112e-17
774 1 28.5761 65.1207 -5.55112e-17
775 1 131.03 55.002 -5.55112e-17
776 1 207.935 138.182 -5.55112e-17
777 1 114.641 74.9655 -5.55112e-17
778 1 132.03 184.737 -5.55112e-17
779 1 191.433 136.037 -5.55112e-17
780 1 74.6234 190.686 -5.55112e-17
781 1 55.9198 150.346 -5.55112e-17
782 1 35.9096 93.3362 -5.55112e-17
783 1 123.601 83.9082 -5.55112e-17
784 2 171.238 52.6734 -5.55112e-17
785 1 22.5753 74.5572 -5.55112e-17
786 1 121.507 144.495 -5.55112e-17
787 1 122.343 164.782 -5.55112e-17
788 1 53.3486 216.636 -5.55112e-17
789 2 82.7698 170.863 -5.55112e-17
790 1 135.809 152.309 -5.55112e-17
791 2 87.4601 213.826 -5.55112e-17
792 2 38.916 2.63527 -5.55112e-17
793 2 179.427 175.475 -5.55112e-17
794 1 149.383 20.9315 -5.55112e-17
795 1 60.9387 163.286 -5.55112e-17
796 1 208.736 148.77 -5.55112e-17
797 1 98.6712 43.1904 -5.55112e-17
798 2 46.2433 179.21 -5.55112e-17
799 2 186.267 150.155 -5.55112e-17
800 2 147.025 86.296 -5.55112e-17
801 1 142.716 102.191 -5.55112e-17
802 1 167.779 81.3555 -5.55112e-17
803 1 14.5347 73.9754 -5.55112e-17
804 2 109.334 206.004 -5.55112e-17
805 1 161.941 210.06 -5.55112e-17
806 1 72.5111 200.945 -5.55112e-17
807 2 113.025 86.0115 -5.55112e-17
808 1 73.1917 145.958 -5.55112e-17
809 2 75.9203 9.20445 -5.55112e-17
810 1 59.904 108.253 -5.55112e-17
811 1 115.913 70.163 -5.55112e-17
812 1 209.881 13.8265 -5.55112e-17
813 2 33.2364 89.2927 -5.55112e-17
814 1 116.431 86.4333 -5.55112e-17
815 1 102.355 14.6675 -5.55112e-17
816 1 41.0259 187.559 -5.55112e-17
817 1 183.406 32.1115 -5.55112e-17
818 1 31.8939 206.564 -5.55112e-17
819 1 106.352 145.829 -5.55112e-17
820 1 187.677 35.4616 -5.55112e-17
821 1 3.13481 169.804 -5.55112e-17
822 2 58.2067 218.604 -5.55112e-17
823 2 174.882 200.904 -5.55112e-17
824 1 109.382 53.2485 -5.55112e-17
825 1 113.537 195.367 -5.55112e-17
826 1 44.2896 83.8828 -5.55112e-17
827 1 20.8864 58.3878 -5.55112e-17
828 1 52.4091 29.1447 -5.55112e-17
829 1 206.195 73.8072 -5.55112e-17
830 1 147.509 32.5526 -5.55112e-17
831 1 164.692 104.367 -5.55112e-17
832 1 119.778 46.8975 -5.55112e-17
833 1 68.322 7.29987 -5.55112e-17
834 1 129.186 166.546 -5.55112e-17
835 1 93.0336 218.479 -5.55112e-17
836 1 171.732 15.6398 -5.55112e-17
837 1 68.926 202.368 -5.55112e-17
838 1 97.9363 200.443 -5.55112e-17
839 2 10.3655 52.1898 -5.55112e-17
840 1 108.788 61.0309 -5.55112e-17
841 2 143.458 187.221 -5.55112e-17
842 1 97.1893 74.5176 -5.55112e-17
843 2 72.3537 2.48478 -5.55112e-17
844 1 59.4797 147.007 -5.55112e-17
845 1 206.926 2.37423 -5.55112e-17
846 1 160.492 1.72049 -5.55112e-17
847 1 134.027 192.225 -5.55112e-17
848 1 85.1503 190.232 -5.55112e-17
849 1 60.5218 56.5813 -5.55112e-17
850 1 29.7776 81.6868 -5.55112e-17
851 1 22.6164 17.4279 -5.55112e-17
852 1 63.6468 136.805 -5.55112e-17
853 1 117.06 19.4209 -5.55112e-17
854 1 66.8608 204.127 -5.55112e-17
855 1 91.1126 181.676 -5.55112e-17
856 1 210.773 157.328 -5.55112e-17