ITEM: TIMESTEP
0
ITEM: NUMBER OF ATOMS
7200
ITEM: BOX BOUNDS xy xz yz pp pp pp
0.0000000000000000e+00 2.1900000000000000e+02 0.0000000000000000e+00
0.0000000000000000e+00 2.1900000000000000e+02 0.0000000000000000e+00
-3.6499999999999999e-01 3.6499999999999999e-01 0.0000000000000000e+00
ITEM: ATOMS id type x y z
1 1 180.426 97.1634 -5.55112e-17
2 1 141.726 195.413 -5.55112e-17
3 1 158.592 209.11 -5.55112e-17
4 1 56.1988 15.6182 -5.55112e-17
5 1 60.0044 157.264 -5.55112e-17
6 1 109.429 146.669 -5.55112e-17
7 1 27.1678 122.495 -5.55112e-17
8 2 112.633 110.479 -5.55112e-17
9 1 176.138 72.201 -5.55112e-17
10 2 129.087 164.991 -5.55112e-17
11 1 173.972 30.8879 -5.55112e-17
12 1 208.229 218.328 -5.55112e-17
13 2 143.186 33.2918 -5.55112e-17
14 1 168.822 215.756 -5.55112e-17
15 1 44.938 72.5355 -5.55112e-17
16 2 78.8428 112.282 -5.55112e-17
17 1 52.7987 136.742 -5.55112e-17
18 2 203.75 142.949 -5.55112e-17
19 1 169.395 109.823 -5.55112e-17
20 1 161.511 148.574 -5.55112e-17
21 1 137.193 57.3814 -5.55112e-17
22 2 138.111 36.3763 -5.55112e-17
23 2 141.474 41.1759 -5.55112e-17
24 1 15.1041 212.127 -5.55112e-17
25 1 46.9468 98.3587 -5.55112e-17
26 2 189.127 136.781 -5.55112e-17
27 1 109.506 120.806 -5.55112e-17
28 2 127.442 94.1985 -5.55112e-17
29 1 192.277 188.746 -5.55112e-17
30 1 166.961 173.997 -5.55112e-17
31 1 129.716 204.432 -5.55112e-17
32 1 199.56 26.2871 -5.55112e-17
33 1 101.483 208.966 -5.55112e-17
34 1 157.3 39.5713 -5.55112e-17
35 1 101.591 112.816 -5.55112e-17
36 1 15.3422 64.8805 -5.55112e-17
37 2 82.2746 24.7777 -5.55112e-17
38 1 64.7202 99.8629 -5.55112e-17
39 1 33.1945 151.906 -5.55112e-17
40 1 16.2702 116.7 -5.55112e-17
41 1 32.3135 213.691 -5.55112e-17
42 1 193.342 29.8536 -5.55112e-17
43 1 39.8313 59.2307 -5.55112e-17
44 1 25.3895 117.622 -5.55112e-17
45 1 16.0069 150.583 -5.55112e-17
46 1 86.2187 7.65583 -5.55112e-17
47 1 133.426 110.05 -5.55112e-17
48 2 58.1593 69.1435 -5.55112e-17
49 1 18.3129 80.8779 -5.55112e-17
50 1 63.0669 70.2202 -5.55112e-17
51 1 209.915 156.347 -5.55112e-17
52 1 95.29 183.339 -5.55112e-17
53 1 100.04 161.328 -5.55112e-17
54 1 15.5097 124.508 -5.55112e-17
55 1 72.0849 144.256 -5.55112e-17
56 1 19.874 135.593 -5.55112e-17
57 2 218.507 102.806 -5.55112e-17
58 1 155.399 120.966 -5.55112e-17
59 1 80.8549 11.6868 -5.55112e-17
60 2 212.039 205.141 -5.55112e-17
61 2 44.6195 165.447 -5.55112e-17
62 1 107.301 120.226 -5.55112e-17
63 1 31.8294 173.542 -5.55112e-17
64 1 79.7021 181.985 -5.55112e-17
65 1 217.763 179.15 -5.55112e-17
66 1 201.154 109.311 -5.55112e-17
67 1 189.175 152.73 -5.55112e-17
68 1 218.85 32.1172 -5.55112e-17
69 1 8.72572 200.52 -5.55112e-17
70 1 55.2587 207.549 -5.55112e-17
71 1 113.251 149.357 -5.55112e-17
72 1 30.5348 20.815 -5.55112e-17
73 1 113.782 49.5019 -5.55112e-17
74 1 117.811 202.469 -5.55112e-17
75 2 32.2257 195.622 -5.55112e-17
76 1 32.944 111.522 -5.55112e-17
77 1 186.08 40.4221 -5.55112e-17
78 1 188.354 26.9554 -5.55112e-17
79 2 176.167 170.497 -5.55112e-17
80 1 82.854 61.041 -5.55112e-17
81 1 36.6971 42.725 -5.55112e-17
82 1 82.5568 30.3917 -5.55112e-17
83 2 139.891 127.468 -5.55112e-17
84 1 9.89458 61.2964 -5.55112e-17
85 1 70.027 65.5506 -5.55112e-17
86 1 213.775 182.579 -5.55112e-17
87 1 183.857 52.1539 -5.55112e-17
88 1 136.619 78.9846 -5.55112e-17
89 2 199.447 56.0109 -5.55112e-17
90 2 203.567 70.4527 -5.55112e-17
91 1 86.6756 154.685 -5.55112e-17
92 2 117.33 145.505 -5.55112e-17
93 1 205.334 187.726 -5.55112e-17
94 2 79.4173 145.57 -5.55112e-17
95 1 117.612 51.9559 -5.55112e-17
96 1 20.5536 210.053 -5.55112e-17
97 1 218.797 114.804 -5.55112e-17
98 1 97.9126 192.786 -5.55112e-17
99 1 66.4799 41.6261 -5.55112e-17
100 1 23.9784 75.2381 -5.55112e-17
101 1 46.4692 11.8121 -5.55112e-17
102 1 163.003 54.6292 -5.55112e-17
103 1 167.671 4.11368 -5.55112e-17
104 1 133.93 165.424 -5.55112e-17
105 1 47.0676 157.842 -5.55112e-17
106 1 78.9767 96.6725 -5.55112e-17
107 2 180.433 198.163 -5.55112e-17
108 1 191.835 12.2015 -5.55112e-17
109 1 46.1247 53.9265 -5.55112e-17
110 1 184.286 209.086 -5.55112e-17
111 1 5.70576 119.467 -5.55112e-17
112 1 155.557 113.237 -5.55112e-17
113 1 137.681 210.832 -5.55112e-17
114 1 6.3907 0.779612 -5.55112e-17
115 1 189.143 8.13419 -5.55112e-17
116 2 110.509 205.237 -5.55112e-17
117 1 93.9844 159.197 -5.55112e-17
118 1 196.074 156.657 -5.55112e-17
119 2 183.44 216.993 -5.55112e-17
120 1 211.479 181.599 -5.55112e-17
121 1 34.8263 26.1879 -5.55112e-17
122 1 25.1773 203.718 -5.55112e-17
123 1 99.1394 112.081 -5.55112e-17
124 1 39.402 215.73 -5.55112e-17
125 1 118.919 191.746 -5.55112e-17
126 1 7.8859 32.594 -5.55112e-17
127 1 54.1483 164.87 -5.55112e-17
128 1 81.977 155.156 -5.55112e-17
129 1 75.416 36.2158 -5.55112e-17
130 1 45.1354 84.399 -5.55112e-17
131 1 107.378 94.4159 -5.55112e-17
132 2 214.055 57.8674 -5.55112e-17
133 1 39.1866 120.579 -5.55112e-17
134 1 125.965 135.894 -5.55112e-17
135 1 162.586 167.498 -5.55112e-17
136 1 151.559 41.8471 -5.55112e-17
137 1 20.6285 152.666 -5.55112e-17
138 1 143.126 56.9411 -5.55112e-17
139 1 181.426 20.1497 -5.55112e-17
140 2 50.5126 213.314 -5.55112e-17
141 1 161.432 64.3878 -5.55112e-17
142 2 7.77034 116.638 -5.55112e-17
143 1 195.722 181.458 -5.55112e-17
144 2 124.153 107.556 -5.55112e-17
145 1 131.966 209.316 -5.55112e-17
146 1 90.4009 18.3903 -5.55112e-17
147 1 51.5524 40.7757 -5.55112e-17
148 1 124.908 129.759 -5.55112e-17
149 1 91.7775 137.167 -5.55112e-17
150 1 170.385 161.285 -5.55112e-17
151 1 30.736 65.3745 -5.55112e-17
152 1 211.488 141.242 -5.55112e-17
153 2 73.2176 115.374 -5.55112e-17
154 1 43.1457 1.09662 -5.55112e-17
155 1 201.558 14.4495 -5.55112e-17
156 2 138.678 135.346 -5.55112e-17
157 1 124.207 28.8275 -5.55112e-17
158 1 25.8211 161.688 -5.55112e-17
159 1 144.997 109.494 -5.55112e-17
160 1 106.604 2.69541 -5.55112e-17
161 1 17.782 210.755 -5.55112e-17
162 1 133.667 142.298 -5.55112e-17
163 1 133.596 168.359 -5.55112e-17
164 1 216.36 80.3019 -5.55112e-17
165 1 11.8349 192.591 -5.55112e-17
166 2 82.0966 128.1 -5.55112e-17
167 1 191.542 83.0453 -5.55112e-17
168 1 70.6923 72.3836 -5.55112e-17
169 1 94.6288 86.3646 -5.55112e-17
170 1 14.1965 163.261 -5.55112e-17
171 1 44.8177 100.183 -5.55112e-17
172 1 102.759 130.782 -5.55112e-17
173 1 112.246 99.745 -5.55112e-17
174 1 86.4274 87.2063 -5.55112e-17
175 2 146.338 51.6678 -5.55112e-17
176 1 37.449 127.993 -5.55112e-17
177 2 134.415 98.0451 -5.55112e-17
178 1 216.799 128.399 -5.55112e-17
179 1 61.725 110.763 -5.55112e-17
180 1 159.269 179.285 -5.55112e-17
181 1 174.864 25.264 -5.55112e-17
182 2 178.087 149.229 -5.55112e-17
183 1 171.889 116.2 -5.55112e-17
184 1 42.397 23.3693 -5.55112e-17
185 2 159.379 176.33 -5.55112e-17
186 2 64.55 60.3419 -5.55112e-17
187 1 142.67 178.627 -5.55112e-17
188 1 101.667 33.1692 -5.55112e-17
189 1 187.992 45.1259 -5.55112e-17
190 2 154.588 118.128 -5.55112e-17
191 1 122.654 105.091 -5.55112e-17
192 2 64.3086 75.4305 -5.55112e-17
193 2 216.504 135.964 -5.55112e-17
194 1 81.5438 69.5273 -5.55112e-17
195 1 24.9073 182.864 -5.55112e-17
196 1 169.914 193.493 -5.55112e-17
197 1 79.0283 204.699 -5.55112e-17
198 2 46.9798 101.733 -5.55112e-17
199 1 49.9484 129.5 -5.55112e-17
200 1 185.812 97.5844 -5.55112e-17
201 2 131.44 121.837 -5.55112e-17
202 1 175.16 149.664 -5.55112e-17
203 1 127.336 53.5505 -5.55112e-17
204 1 205.611 211.627 -5.55112e-17
205 2 78.3709 127.884 -5.55112e-17
206 1 20.9632 172.888 -5.55112e-17
207 1 184.03 68.1115 -5.55112e-17
208 1 64.0843 85.5607 -5.55112e-17
209 1 125.285 190.203 -5.55112e-17
210 1 135.999 120.522 -5.55112e-17
211 2 78.0058 61.4481 -5.55112e-17
212 1 107.389 53.6458 -5.55112e-17
213 1 93.4543 5.36077 -5.55112e-17
214 1 186.77 34.2859 -5.55112e-17
215 1 178.468 192.495 -5.55112e-17
216 1 124.749 198.965 -5.55112e-17
217 1 97.3176 144.547 -5.55112e-17
218 2 101.771 72.7874 -5.55112e-17
219 1 133.671 11.4664 -5.55112e-17
220 2 211.06 63.3443 -5.55112e-17
221 1 36.3485 52.0779 -5.55112e-17
222 1 94.902 143.392 -5.55112e-17
223 1 67.2355 169.776 -5.55112e-17
224 2 145.634 209.698 -5.55112e-17
225 1 91.6824 147.97 -5.55112e-17
226 1 125.558 161.163 -5.55112e-17
227 2 161.107 59.5749 -5.55112e-17
228 1 124.835 204.582 -5.55112e-17
229 1 207.273 67.3215 -5.55112e-17
230 1 191.121 96.3601 -5.55112e-17
231 1 102.012 83.3659 -5.55112e-17
232 1 138.054 22.3268 -5.55112e-17
233 1 51.3135 43.371 -5.55112e-17
234 1 1.67771 78.0935 -5.55112e-17
235 1 104.675 143.427 -5.55112e-17
236 1 193.55 110.355 -5.55112e-17
237 1 120.009 168.735 -5.55112e-17
238 1 192.936 104.77 -5.55112e-17
239 2 207.062 175.762 -5.55112e-17
240 1 9.5156 198.054 -5.55112e-17
241 2 53.4741 11.1545 -5.55112e-17
242 2 146.974 156.746 -5.55112e-17
243 2 85.4398 29.5154 -5.55112e-17
244 1 132.258 70.506 -5.55112e-17
245 1 91.7831 11.103 -5.55112e-17
246 1 57.1853 34.9983 -5.55112e-17
247 1 193.332 193.417 -5.55112e-17
248 1 28.1217 83.4427 -5.55112e-17
249 1 48.3991 121.09 -5.55112e-17
250 2 109.473 51.6622 -5.55112e-17
251 1 198.832 72.8018 -5.55112e-17
252 1 44.2687 94.1287 -5.55112e-17
253 1 84.1706 26.896 -5.55112e-17
254 2 122.431 11.7324 -5.55112e-17
255 1 9.94008 81.4685 -5.55112e-17
256 1 193.345 141.906 -5.55112e-17
257 1 47.7986 200.353 -5.55112e-17
258 2 25.7496 77.9206 -5.55112e-17
259 1 213.696 37.0663 -5.55112e-17
260 1 183.137 18.3887 -5.55112e-17
261 1 147.17 212.204 -5.55112e-17
262 1 134.467 72.087 -5.55112e-17
263 1 85.3581 35.13 -5.55112e-17
264 1 177.114 66.8461 -5.55112e-17
265 1 124.901 140.289 -5.55112e-17
266 1 93.7029 93.2738 -5.55112e-17
267 1 143.759 199.73 -5.55112e-17
268 1 63.1409 81.2495 -5.55112e-17
269 1 155.953 108.808 -5.55112e-17
270 1 212 94.2922 -5.55112e-17
271 1 6.14275 145.241 -5.55112e-17
272 1 140.362 193.111 -5.55112e-17
273 1 177.633 102.238 -5.55112e-17
274 2 145.713 76.1129 -5.55112e-17
275 1 209.413 39.1662 -5.55112e-17
276 2 45.8159 123.015 -5.55112e-17
277 2 150.607 20.5633 -5.55112e-17
278 1 89.9915 24.2349 -5.55112e-17
279 2 4.0957 5.22184 -5.55112e-17
280 1 177.188 217.005 -5.55112e-17
281 1 168.913 105.314 -5.55112e-17
282 1 152.694 161.571 -5.55112e-17
283 1 181.232 60.9365 -5.55112e-17
284 1 135.695 110.51 -5.55112e-17
285 1 26.9613 81.0977 -5.55112e-17
286 2 51.7248 197.505 -5.55112e-17
287 1 194.233 187.505 -5.55112e-17
288 1 41.4003 210.647 -5.55112e-17
289 1 23.2192 26.4438 -5.55112e-17
290 1 118.302 28.2381 -5.55112e-17
291 1 124.374 145.012 -5.55112e-17
292 2 153.261 134.457 -5.55112e-17
293 2 66.7087 109.07 -5.55112e-17
294 1 184.414 34.8854 -5.55112e-17
295 1 207.301 95.6362 -5.55112e-17
296 1 89.2071 162.028 -5.55112e-17
297 1 10.6743 145.518 -5.55112e-17
298 1 216.187 108.017 -5.55112e-17
299 1 71.2402 214.231 -5.55112e-17
300 2 138.452 101.503 -5.55112e-17
301 1 113.022 13.364 -5.55112e-17
302 1 155.138 166.494 -5.55112e-17
303 2 61.8299 126.635 -5.55112e-17
304 2 68.8181 148.503 -5.55112e-17
305 1 75.3416 93.3649 -5.55112e-17
306 1 188.432 210.901 -5.55112e-17
307 1 78.6551 109.318 -5.55112e-17
308 1 123.635 36.6155 -5.55112e-17
309 2 34.0576 161.982 -5.55112e-17
310 1 111.994 156.563 -5.55112e-17
311 1 202.855 150.313 -5.55112e-17
312 1 57.0534 189.532 -5.55112e-17
313 2 128.331 88.9176 -5.55112e-17
314 1 205.724 171.553 -5.55112e-17
315 1 153.238 216.857 -5.55112e-17
316 1 218.776 191.557 -5.55112e-17
317 1 41.5501 28.3219 -5.55112e-17
318 1 104.138 6.69874 -5.55112e-17
319 1 64.4523 187.503 -5.55112e-17
320 1 169.872 29.9801 -5.55112e-17
321 1 50.6456 10.2991 -5.55112e-17
322 1 112.228 134.124 -5.55112e-17
323 1 216.446 2.10892 -5.55112e-17
324 1 154.218 171.188 -5.55112e-17
325 1 124.943 132.406 -5.55112e-17
326 1 50.6423 132.044 -5.55112e-17
327 2 121.006 176.867 -5.55112e-17
328 1 17.4779 129.336 -5.55112e-17
329 2 73.1189 177.958 -5.55112e-17
330 1 191.191 77.487 -5.55112e-17
331 1 115.468 111.427 -5.55112e-17
332 2 91.5594 179.199 -5.55112e-17
333 1 14.523 158.627 -5.55112e-17
334 1 14.6063 10.6619 -5.55112e-17
335 1 2.67439 27.7876 -5.55112e-17
336 1 76.9954 100.753 -5.55112e-17
337 1 165.293 141.33 -5.55112e-17
338 1 152.51 105.822 -5.55112e-17
339 1 132.399 184.969 -5.55112e-17
340 1 47.1352 188.604 -5.55112e-17
341 1 206.836 7.99713 -5.55112e-17
342 1 194.424 134.286 -5.55112e-17
343 1 115.743 68.216 -5.55112e-17
344 1 113.595 205.349 -5.55112e-17
345 1 9.16071 152.87 -5.55112e-17
346 1 4.61332 18.8574 -5.55112e-17
347 1 204.486 128.73 -5.55112e-17
348 1 212.89 76.636 -5.55112e-17
349 1 30.2995 193.367 -5.55112e-17
350 2 16.9911 62.4463 -5.55112e-17
351 1 48.5173 87.4585 -5.55112e-17
352 1 6.42442 205.249 -5.55112e-17
353 1 188.565 124.237 -5.55112e-17
354 1 169.963 126.259 -5.55112e-17
355 1 20.1664 53.0197 -5.55112e-17
356 1 203.345 26.758 -5.55112e-17
357 1 16.0431 172.885 -5.55112e-17
358 1 19.4057 9.48212 -5.55112e-17
359 1 109.107 63.1095 -5.55112e-17
360 1 58.8091 89.2952 -5.55112e-17
361 1 145.173 22.1787 -5.55112e-17
362 1 114.761 138.206 -5.55112e-17
363 1 176.635 126.346 -5.55112e-17
364 2 188.418 213.675 -5.55112e-17
365 1 177.222 181.844 -5.55112e-17
366 1 121.831 139.398 -5.55112e-17
367 1 211.648 91.6108 -5.55112e-17
368 1 165.041 120.574 -5.55112e-17
369 2 76.3829 80.234 -5.55112e-17
370 1 73.7517 18.6263 -5.55112e-17
371 1 174.562 67.7036 -5.55112e-17
372 2 94.263 73.3997 -5.55112e-17
373 2 79.8805 160.113 -5.55112e-17
374 1 112.186 75.0778 -5.55112e-17
375 1 144.526 54.5751 -5.55112e-17
376 1 22.0728 199.039 -5.55112e-17
377 1 69.6503 117.326 -5.55112e-17
378 1 55.4184 112.679 -5.55112e-17
379 1 74.5358 99.2307 -5.55112e-17
380 1 60.289 71.4777 -5.55112e-17
381 1 195.646 68.4864 -5.55112e-17
382 1 160.831 184.04 -5.55112e-17
383 1 40.418 49.851 -5.55112e-17
384 1 48.1214 55.4818 -5.55112e-17
385 1 88.0424 19.4108 -5.55112e-17
386 2 18.9821 217.914 -5.55112e-17
387 1 150.358 180.652 -5.55112e-17
388 1 196.129 6.86205 -5.55112e-17
389 1 192.229 98.6071 -5.55112e-17
390 2 42.3635 62.9773 -5.55112e-17
391 2 8.95928 3.09361 -5.55112e-17
392 1 25.7569 185.475 -5.55112e-17
393 1 3.68473 158.012 -5.55112e-17
394 1 175.895 20.2187 -5.55112e-17
395 1 108.545 179.331 -5.55112e-17
396 1 99.1958 109.33 -5.55112e-17
397 1 175.953 98.3692 -5.55112e-17
398 1 35.0742 11.2238 -5.55112e-17
399 1 215.634 110.684 -5.55112e-17
400 1 36.3566 13.4783 -5.55112e-17
401 1 91.103 13.5572 -5.55112e-17
402 2 61.2359 207.119 -5.55112e-17
403 1 4.69847 160.436 -5.55112e-17
404 1 109.02 144.341 -5.55112e-17
405 1 99.9126 143.157 -5.55112e-17
406 1 123.533 17.8813 -5.55112e-17
407 2 3.16258 175.375 -5.55112e-17
408 1 78.6533 1.16859 -5.55112e-17
409 1 52.0887 154.935 -5.55112e-17
410 1 14.6807 90.8267 -5.55112e-17
411 1 76.7422 204.159 -5.55112e-17
412 1 145.452 163.904 -5.55112e-17
413 1 30.2117 115.495 -5.55112e-17
414 1 98.0713 190.36 -5.55112e-17
415 1 167.522 138.899 -5.55112e-17
416 1 69.0644 113.08 -5.55112e-17
417 1 216.767 176.494 -5.55112e-17
418 2 0.988337 186.887 -5.55112e-17
419 1 181.914 53.8986 -5.55112e-17
420 2 81.6717 78.43 -5.55112e-17
421 1 196.323 0.905966 -5.55112e-17
422 1 109.461 60.4817 -5.55112e-17
423 2 193.43 113.726 -5.55112e-17
424 1 55.7151 48.2851 -5.55112e-17
425 1 164.09 18.5673 -5.55112e-17
426 1 183.13 155.217 -5.55112e-17
427 1 167.375 9.50485 -5.55112e-17
428 1 69.2478 107.756 -5.55112e-17
429 1 166.744 208.748 -5.55112e-17
430 1 103.039 75.4503 -5.55112e-17
431 1 156.655 189.624 -5.55112e-17
432 1 192.808 129.892 -5.55112e-17
433 1 113.531 123.139 -5.55112e-17
434 1 3.92977 76.9546 -5.55112e-17
435 1 211.986 125.222 -5.55112e-17
436 1 201.085 7.05752 -5.55112e-17
437 1 178.874 127.431 -5.55112e-17
438 2 116.309 162.242 -5.55112e-17
439 1 196.431 207.458 -5.55112e-17
440 1 120.86 107.11 -5.55112e-17
441 1 105.765 163.158 -5.55112e-17
442 1 41.6599 175.43 -5.55112e-17
443 1 134.352 162.845 -5.55112e-17
444 1 153.753 145.503 -5.55112e-17
445 1 139.167 67.0331 -5.55112e-17
446 1 28.4881 57.4675 -5.55112e-17
447 1 52.0103 38.0068 -5.55112e-17
448 1 139.5 198.993 -5.55112e-17
449 1 166.186 163.768 -5.55112e-17
450 1 14.749 60.1867 -5.55112e-17
451 1 2.13603 194.751 -5.55112e-17
452 1 171.525 188.882 -5.55112e-17
453 1 19.1479 76.176 -5.55112e-17
454 1 36.9406 214.491 -5.55112e-17
455 1 67.2499 76.1862 -5.55112e-17
456 1 104.844 57.724 -5.55112e-17
457 1 185.066 156.36 -5.55112e-17
458 1 151.638 170.217 -5.55112e-17
459 1 101.815 118.749 -5.55112e-17
460 1 208.122 62.5474 -5.55112e-17
461 1 56.2317 89.9273 -5.55112e-17
462 1 161.905 17.0988 -5.55112e-17
463 1 189.201 150.324 -5.55112e-17
464 1 21.2845 144.297 -5.55112e-17
465 1 10.2973 51.5343 -5.55112e-17
466 1 7.79861 99.8508 -5.55112e-17
467 1 114.615 61.8374 -5.55112e-17
468 1 199.169 83.6479 -5.55112e-17
469 1 141.323 4.02289 -5.55112e-17
470 1 142.892 181.012 -5.55112e-17
471 1 154.409 110.793 -5.55112e-17
472 1 168.576 130.946 -5.55112e-17
473 1 210.089 203.406 -5.55112e-17
474 1 143.492 20.4472 -5.55112e-17
475 1 215.909 168.341 -5.55112e-17
476 2 149.589 151.312 -5.55112e-17
477 1 210.199 12.7372 -5.55112e-17
478 1 109.724 215.386 -5.55112e-17
479 1 156.682 154.704 -5.55112e-17
480 1 182.724 190.594 -5.55112e-17
481 1 113.992 80.9232 -5.55112e-17
482 1 152.958 18.5996 -5.55112e-17
483 1 199.355 146.412 -5.55112e-17
484 2 194.205 184.47 -5.55112e-17
485 1 198.713 166.196 -5.55112e-17
486 1 192.442 17.6558 -5.55112e-17
487 1 80.3185 88.8246 -5.55112e-17
488 1 59.4568 122.189 -5.55112e-17
489 1 0.526205 135.482 -5.55112e-17
490 1 69.5802 43.7566 -5.55112e-17
491 1 142.958 63.7266 -5.55112e-17
492 1 53.1744 212.784 -5.55112e-17
493 1 192.187 94.2359 -5.55112e-17
494 1 99.7455 54.1661 -5.55112e-17
495 1 7.24789 182.838 -5.55112e-17
496 2 7.57482 29.2937 -5.55112e-17
497 1 73.5179 68.6728 -5.55112e-17
498 1 93.3431 117.039 -5.55112e-17
499 2 88.575 157.17 -5.55112e-17
500 1 54.6125 161.665 -5.55112e-17
501 2 157.871 21.8672 -5.55112e-17
502 2 125.878 176.146 -5.55112e-17
503 1 107.327 57.9787 -5.55112e-17
504 1 65.6669 90.5402 -5.55112e-17
505 1 5.59833 127.511 -5.55112e-17
506 1 11.2927 162.821 -5.55112e-17
507 1 206.561 69.6827 -5.55112e-17
508 1 216.064 141.511 -5.55112e-17
509 2 75.3949 21.1438 -5.55112e-17
510 2 213.169 13.7803 -5.55112e-17
511 1 0.684802 15.6616 -5.55112e-17
512 2 51.53 122.006 -5.55112e-17
513 1 118.03 132.936 -5.55112e-17
514 1 113.728 0.593522 -5.55112e-17
515 1 190.651 30.9699 -5.55112e-17
516 1 92.4298 76.1984 -5.55112e-17
517 1 46.511 93.1546 -5.55112e-17
518 2 181.098 136.597 -5.55112e-17
519 1 96.8459 107.664 -5.55112e-17
520 2 204.697 37.2931 -5.55112e-17
521 1 201.102 40.455 -5.55112e-17
522 1 128.663 22.532 -5.55112e-17
523 1 138.794 106.541 -5.55112e-17
524 1 89.1108 216.347 -5.55112e-17
525 1 91.6701 50.1675 -5.55112e-17
526 1 143.482 30.2409 -5.55112e-17
527 1 145.984 116.157 -5.55112e-17
528 1 20.7013 141.828 -5.55112e-17
529 1 73.2142 166.199 -5.55112e-17
530 1 139.73 26.565 -5.55112e-17
531 1 112.688 165.891 -5.55112e-17
532 1 114.149 34.1445 -5.55112e-17
533 1 13.4166 34.0599 -5.55112e-17
534 1 126.58 124.096 -5.55112e-17
535 1 158.546 137.269 -5.55112e-17
536 1 176.249 164.979 -5.55112e-17
537 1 45.3999 24.2708 -5.55112e-17
538 1 100.686 158.863 -5.55112e-17
539 1 217.3 10.944 -5.55112e-17
540 1 21.7335 24.3416 -5.55112e-17
541 1 183.897 49.1808 -5.55112e-17
542 1 147.061 73.0635 -5.55112e-17
543 1 133.256 33.5005 -5.55112e-17
544 1 125.319 149.942 -5.55112e-17
545 1 22.1696 54.1102 -5.55112e-17
546 1 122.092 167.128 -5.55112e-17
547 1 110.866 6.15136 -5.55112e-17
548 1 15.7159 80.2723 -5.55112e-17
549 1 57.4134 111.556 -5.55112e-17
550 2 104.791 52.4081 -5.55112e-17
551 2 76.418 9.64472 -5.55112e-17
552 2 0.209054 132.463 -5.55112e-17
553 1 47.8581 49.426 -5.55112e-17
554 1 12.8224 131.782 -5.55112e-17
555 2 56.4229 204.589 -5.55112e-17
556 1 116.023 174.344 -5.55112e-17
557 1 125.274 70.1564 -5.55112e-17
558 1 41.5036 166.409 -5.55112e-17
559 1 22.224 211.747 -5.55112e-17
560 1 80.1018 16.3868 -5.55112e-17
561 1 3.69086 187.247 -5.55112e-17
562 1 217.918 123.383 -5.55112e-17
563 2 128.903 107.035 -5.55112e-17
564 1 162.553 88.4529 -5.55112e-17
565 1 201.617 208.245 -5.55112e-17
566 1 47.4837 176.8 -5.55112e-17
567 1 214.474 74.6057 -5.55112e-17
568 1 68.4555 8.13327 -5.55112e-17
569 1 193.95 116.957 -5.55112e-17
570 1 8.74481 49.4242 -5.55112e-17
571 1 109.656 99.2726 -5.55112e-17
572 1 13.7222 8.42996 -5.55112e-17
573 1 100.108 25.5431 -5.55112e-17
574 1 95.3826 163.783 -5.55112e-17
575 1 45.0025 140.153 -5.55112e-17
576 1 200.665 69.0839 -5.55112e-17
577 1 56.5999 94.3952 -5.55112e-17
578 1 140.706 211.069 -5.55112e-17
579 1 156.253 175.765 -5.55112e-17
580 1 144.051 7.15086 -5.55112e-17
581 1 193.388 45.3803 -5.55112e-17
582 1 115.775 95.8172 -5.55112e-17
583 1 82.39 213.941 -5.55112e-17
584 2 168.319 73.3789 -5.55112e-17
585 1 41.3962 18.5738 -5.55112e-17
586 1 127.934 58.0271 -5.55112e-17
587 1 174.195 38.9356 -5.55112e-17
588 1 36.8227 160.934 -5.55112e-17
589 1 163.234 202.927 -5.55112e-17
590 1 11.9552 152.789 -5.55112e-17
591 1 76.7441 201.324 -5.55112e-17
592 1 194.19 169.021 -5.55112e-17
593 1 123.274 188.487 -5.55112e-17
594 1 155.815 61.0285 -5.55112e-17
595 1 106.816 145.109 -5.55112e-17
596 1 81.4665 14.6996 -5.55112e-17
597 2 186.527 167.288 -5.55112e-17
598 1 57.6191 184.317 -5.55112e-17
599 1 90.1761 61.0821 -5.55112e-17
600 1 82.121 84.2975 -5.55112e-17
601 1 208.509 208.848 -5.55112e-17
602 1 190.709 4.65853 -5.55112e-17
603 1 106.826 0.394396 -5.55112e-17
604 1 152.286 84.3012 -5.55112e-17
605 2 60.4047 81.2441 -5.55112e-17
606 1 205.245 150.637 -5.55112e-17
607 2 129.935 192.255 -5.55112e-17
608 1 204.206 165.075 -5.55112e-17
609 1 72.3953 104.369 -5.55112e-17
610 1 157.671 84.9314 -5.55112e-17
611 1 100.029 13.768 -5.55112e-17
612 1 105.291 191.253 -5.55112e-17
613 1 122.673 95.3496 -5.55112e-17
614 2 157.576 63.2693 -5.55112e-17
615 1 210.542 15.3968 -5.55112e-17
616 1 107.768 132.214 -5.55112e-17
617 1 179.568 182.169 -5.55112e-17
618 1 134.084 112.665 -5.55112e-17
619 1 23.5905 113.435 -5.55112e-17
620 1 172.442 127.318 -5.55112e-17
621 1 146.014 16.4834 -5.55112e-17
622 1 161.936 181.09 -5.55112e-17
623 1 95.0314 0.774628 -5.55112e-17
624 1 148.172 121.484 -5.55112e-17
625 1 70.5596 131.675 -5.55112e-17
626 1 107.839 156.924 -5.55112e-17
627 1 179.064 68.3155 -5.55112e-17
628 1 123.483 208.798 -5.55112e-17
629 1 156.353 168.81 -5.55112e-17
630 2 135.889 29.4458 -5.55112e-17
631 1 75.9723 137.438 -5.55112e-17
632 1 52.0551 109.386 -5.55112e-17
633 1 156.505 123.181 -5.55112e-17
634 1 196.582 199.628 -5.55112e-17
635 1 169.99 24.6388 -5.55112e-17
636 1 110.237 76.5181 -5.55112e-17
637 1 90.4336 8.93355 -5.55112e-17
638 1 191.147 202.579 -5.55112e-17
639 2 181.093 75.274 -5.55112e-17
640 1 5.96921 180.455 -5.55112e-17
641 1 186.877 93.7547 -5.55112e-17
642 1 177.952 11.1005 -5.55112e-17
643 2 180.26 158.815 -5.55112e-17
644 1 135.4 74.2681 -5.55112e-17
645 1 157.365 36.935 -5.55112e-17
646 2 46.9759 143.322 -5.55112e-17
647 1 71.8466 52.9816 -5.55112e-17
648 1 215.811 209.5 -5.55112e-17
649 2 163.05 214.462 -5.55112e-17
650 1 149.021 89.8719 -5.55112e-17
651 1 59.5124 51.618 -5.55112e-17
652 1 170.711 170.445 -5.55112e-17
653 1 119.735 118.757 -5.55112e-17
654 1 11.4537 128.578 -5.55112e-17
655 2 29.4017 178.376 -5.55112e-17
656 1 148.378 67.7518 -5.55112e-17
657 2 124.462 116.011 -5.55112e-17
658 1 177.114 106.724 -5.55112e-17
659 2 150.801 54.7897 -5.55112e-17
660 1 176.281 214.581 -5.55112e-17
661 1 164.042 64.6308 -5.55112e-17
662 1 184.95 95.1828 -5.55112e-17
663 1 124.822 147.436 -5.55112e-17
664 1 218.267 71.1871 -5.55112e-17
665 1 143.046 147.727 -5.55112e-17
666 2 14.7825 97.7924 -5.55112e-17
667 1 46.1974 150.139 -5.55112e-17
668 2 55.0108 193.467 -5.55112e-17
669 1 129.5 175.388 -5.55112e-17
670 1 199.437 38.4598 -5.55112e-17
671 2 202.39 78.9544 -5.55112e-17
672 1 104.145 91.2018 -5.55112e-17
673 1 172.163 150.065 -5.55112e-17
674 1 195.325 197.473 -5.55112e-17
675 1 12.1588 105.182 -5.55112e-17
676 1 27.2871 198.212 -5.55112e-17
677 1 161.077 128.877 -5.55112e-17
678 1 135.2 23.8477 -5.55112e-17
679 2 43.1884 138.271 -5.55112e-17
680 1 27.9104 146.086 -5.55112e-17
681 2 36.8838 76.8704 -5.55112e-17
682 1 116.196 37.7864 -5.55112e-17
683 1 147.514 184.092 -5.55112e-17
684 1 38.4539 20.0423 -5.55112e-17
685 1 102.404 144.727 -5.55112e-17
686 1 204.613 34.3478 -5.55112e-17
687 1 90.8399 105.906 -5.55112e-17
688 1 57.0046 127.677 -5.55112e-17
689 2 55.0922 33.4402 -5.55112e-17
690 1 34.1197 118.964 -5.55112e-17
691 1 96.4352 136.716 -5.55112e-17
692 1 211.798 73.8617 -5.55112e-17
693 1 110.22 95.199 -5.55112e-17
694 1 212.925 148.436 -5.55112e-17
695 1 218.913 196.73 -5.55112e-17
696 1 99.138 157.152 -5.55112e-17
697 1 116.565 128.26 -5.55112e-17
698 1 14.7581 170.354 -5.55112e-17
699 1 144.765 142.541 -5.55112e-17
700 1 209.118 116.006 -5.55112e-17
701 1 26.247 101.341 -5.55112e-17
702 1 125.595 52.0189 -5.55112e-17
703 2 52.2408 207.425 -5.55112e-17
704 1 22.8752 166.406 -5.55112e-17
705 2 51.1601 89.2135 -5.55112e-17
706 1 98.0026 15.5347 -5.55112e-17
707 1 93.6688 203.059 -5.55112e-17
708 1 187.003 157.878 -5.55112e-17
709 1 120.132 104.54 -5.55112e-17
710 1 112.352 10.5273 -5.55112e-17
711 1 152.576 36.3143 -5.55112e-17
712 1 205.862 65.596 -5.55112e-17
713 1 108.13 194.809 -5.55112e-17
714 1 29.7411 40.1513 -5.55112e-17
715 1 216.457 121.163 -5.55112e-17
716 1 217.116 34.712 -5.55112e-17
717 1 62.3177 113.483 -5.55112e-17
718 1 51.3891 12.8197 -5.55112e-17
719 2 214.052 145.807 -5.55112e-17
720 1 47.1257 39.4019 -5.55112e-17
721 1 122.642 154.638 -5.55112e-17
722 1 92.0143 140.003 -5.55112e-17
723 2 66.1391 69.9632 -5.55112e-17
724 1 87.6405 66.4113 -5.55112e-17
725 1 34.1922 38.327 -5.55112e-17
726 1 199.493 178.951 -5.55112e-17
727 1 85.5238 0.381915 -5.55112e-17
728 2 23.2935 89.7389 -5.55112e-17
729 1 8.77996 65.4123 -5.55112e-17
730 1 77.8705 7.14406 -5.55112e-17
731 1 61.1087 138.88 -5.55112e-17
732 1 166.172 199.778 -5.55112e-17
733 1 118.561 150.842 -5.55112e-17
734 1 193.955 218.707 -5.55112e-17
735 1 154.583 212.56 -5.55112e-17
736 2 2.56706 74.4513 -5.55112e-17
737 1 25.1157 154.571 -5.55112e-17
738 1 126.425 208.871 -5.55112e-17
739 1 137.455 91.1825 -5.55112e-17
740 1 176.438 88.7084 -5.55112e-17
741 2 115.062 56.7562 -5.55112e-17
742 1 42.2392 205.656 -5.55112e-17
743 1 119.059 189.228 -5.55112e-17
744 2 128.992 62.7971 -5.55112e-17
745 1 203.911 139.644 -5.55112e-17
746 1 172.335 193.936 -5.55112e-17
747 2 209.067 93.0924 -5.55112e-17
748 1 84.1889 186.402 -5.55112e-17
749 1 129.612 144.656 -5.55112e-17
750 1 53.6835 204.783 -5.55112e-17
751 1 41.2848 192.996 -5.55112e-17
752 1 199.26 19.546 -5.55112e-17
753 1 175.699 155.855 -5.55112e-17
754 1 13.0285 145.251 -5.55112e-17
755 1 114.332 116.118 -5.55112e-17
756 2 125.743 201.451 -5.55112e-17
757 1 31.3987 38.2239 -5.55112e-17
758 1 68.7137 3.88422 -5.55112e-17
759 1 0.0245492 155.658 -5.55112e-17
760 1 162.107 164.926 -5.55112e-17
761 1 5.77243 201.002 -5.55112e-17
762 1 216.813 200.377 -5.55112e-17
763 1 17.4559 54.4401 -5.55112e-17
764 2 168.552 57.3738 -5.55112e-17
765 1 141.021 162.118 -5.55112e-17
766 1 165.497 161.401 -5.55112e-17
767 1 83.7202 179.316 -5.55112e-17
768 1 187.987 139.496 -5.55112e-17
769 1 53.5578 106.751 -5.55112e-17
770 2 90.1776 58.2131 -5.55112e-17
771 1 7.99709 186.976 -5.55112e-17
772 1 15.5809 32.595 -5.55112e-17
773 1 128.377 38.8765 -5.55112e-17
774 1 94.1854 46.3003 -5.55112e-17
775 1 188.982 22.1436 -5.55112e-17
776 1 195.32 93.9639 -5.55112e-17
777 1 182.753 165.525 -5.55112e-17
778 1 64.1087 52.6048 -5.55112e-17
779 1 153.731 199.722 -5.55112e-17
780 1 218.907 8.66947 -5.55112e-17
781 1 111.911 115.205 -5.55112e-17
782 1 100.574 97.0702 -5.55112e-17
783 1 85.7699 20.8639 -5.55112e-17
784 2 195.434 32.3643 -5.55112e-17
785 1 137.864 179.929 -5.55112e-17
786 1 159.799 160.136 -5.55112e-17
787 1 12.9129 80.6436 -5.55112e-17
788 1 129.24 1.90666 -5.55112e-17
789 2 67.4733 115.608 -5.55112e-17
790 1 189.156 185.234 -5.55112e-17
791 2 3.66071 1.66922 -5.55112e-17
792 2 128.922 74.0629 -5.55112e-17
793 2 149.462 25.7619 -5.55112e-17
794 1 105.809 206.512 -5.55112e-17
795 1 68.2345 96.4991 -5.55112e-17
796 1 124.05 165.256 -5.55112e-17
797 1 121.775 43.6515 -5.55112e-17
798 2 161.325 92.9093 -5.55112e-17
799 2 160.95 14.3606 -5.55112e-17
800 2 75.9334 13.4044 -5.55112e-17
801 1 134.454 2.72318 -5.55112e-17
802 1 213.636 170.266 -5.55112e-17
803 1 78.8286 18.4041 -5.55112e-17
804 2 82.067 103.698 -5.55112e-17
805 1 97.5093 129.297 -5.55112e-17
806 1 81.3291 22.007 -5.55112e-17
807 2 170.503 156.464 -5.55112e-17
808 1 85.1723 24.6058 -5.55112e-17
809 2 91.4181 91.0797 -5.55112e-17
810 1 191.58 52.6842 -5.55112e-17
811 1 126.799 1.90236 -5.55112e-17
812 1 115.714 27.374 -5.55112e-17
813 2 14.1863 15.6669 -5.55112e-17
814 1 53.813 43.4081 -5.55112e-17
815 1 204.321 20.1302 -5.55112e-17
816 1 100.317 167.14 -5.55112e-17
817 1 211.85 184.469 -5.55112e-17
818 1 112.415 51.8113 -5.55112e-17
819 1 32.2017 73.9084 -5.55112e-17
820 1 125.498 194.487 -5.55112e-17
821 1 153.729 168.78 -5.55112e-17
822 2 98.7358 198.035 -5.55112e-17
823 2 169.459 117.574 -5.55112e-17
824 1 90.9775 110.248 -5.55112e-17
825 1 170.587 211.395 -5.55112e-17
826 1 24.7438 211.544 -5.55112e-17
827 1 20.2681 122.223 -5.55112e-17
828 1 96.4463 69.0026 -5.55112e-17
829 1 212.961 122.871 -5.55112e-17
830 1 201.731 83.575 -5.55112e-17
831 1 40.0415 195.305 -5.55112e-17
832 1 211.675 144.155 -5.55112e-17
833 1 23.5017 161.412 -5.55112e-17
834 1 10.006 98.8447 -5.55112e-17
835 1 77.7483 35.519 -5.55112e-17
836 1 192.163 132.516 -5.55112e-17
837 1 171.558 105.224 -5.55112e-17
838 1 66.6992 125.187 -5.55112e-17
839 2 48.575 58.4268 -5.55112e-17
840 1 152.003 197.906 -5.55112e-17
841 2 8.90975 141.375 -5.55112e-17
842 1 67.5722 160.705 -5.55112e-17
843 2 154.77 40.9335 -5.55112e-17
844 1 12.9013 51.0922 -5.55112e-17
845 1 217.683 125.799 -5.55112e-17
846 1 106.631 98.861 -5.55112e-17
847 1 113.878 97.7769 -5.55112e-17
848 1 198.979 134.468 -5.55112e-17
849 1 135.116 39.872 -5.55112e-17
850 1 116.581 35.1859 -5.55112e-17
851 1 156.004 6.59629 -5.55112e-17
852 1 189.955 120.177 -5.55112e-17
853 1 145.199 204.579 -5.55112e-17
854 1 192.3 59.7555 -5.55112e-17
855 1 33.5216 108.621 -5.55112e-17
856 1 160.728 67.6274 -5.55112e-17