ITEM: TIMESTEP
0
ITEM: NUMBER OF ATOMS
7200
ITEM: BOX BOUNDS xy xz yz pp pp pp
0.0000000000000000e+00 2.1900000000000000e+02 0.0000000000000000e+00
0.0000000000000000e+00 2.1900000000000000e+02 0.0000000000000000e+00
-3.6499999999999999e-01 3.6499999999999999e-01 0.0000000000000000e+00
ITEM: ATOMS id type x y z
1 1 67.4011 134.907 -5.55112e-17
2 1 183.141 109.141 -5.55112e-17
3 1 11.9407 159.811 -5.55112e-17
4 1 6.98772 85.1725 -5.55112e-17
5 1 215.601 157.221 -5.55112e-17
6 1 116.986 210.712 -5.55112e-17
7 1 41.9824 51.7567 -5.55112e-17
8 2 149.529 83.2339 -5.55112e-17
9 1 203.546 10.0267 -5.55112e-17
10 2 57.9128 193.565 -5.55112e-17
11 1 114.862 14.7449 -5.55112e-17
12 1 129.296 77.9205 -5.55112e-17
13 2 52.0234 79.0516 -5.55112e-17
14 1 65.5423 18.1118 -5.55112e-17
15 1 137.263 105.296 -5.55112e-17
16 2 60.8705 172.459 -5.55112e-17
17 1 114.126 30.6779 -5.55112e-17
18 2 33.0082 77.6567 -5.55112e-17
19 1 106.958 52.0473 -5.55112e-17
20 1 144.471 103.603 -5.55112e-17
21 1 42.2352 5.35256 -5.55112e-17
22 2 49.5919 147.89 -5.55112e-17
23 2 15.6548 56.8317 -5.55112e-17
24 1 159.271 99.4516 -5.55112e-17
25 1 75.4545 182.925 -5.55112e-17
26 2 86.2441 96.613 -5.55112e-17
27 1 155.66 174.254 -5.55112e-17
28 2 24.5624 158.662 -5.55112e-17
29 1 55.6007 46.4813 -5.55112e-17
30 1 140.02 88.28 -5.55112e-17
31 1 211.354 91.0506 -5.55112e-17
32 1 57.878 104.206 -5.55112e-17
33 1 157.292 154.602 -5.55112e-17
34 1 61.7207 77.1565 -5.55112e-17
35 1 177.081 68.7412 -5.55112e-17
36 1 62.1411 74.7452 -5.55112e-17
37 2 135.982 140.58 -5.55112e-17
38 1 197.927 74.5711 -5.55112e-17
39 1 121.899 137.997 -5.55112e-17
40 1 165.43 163.779 -5.55112e-17
41 1 120.49 182.383 -5.55112e-17
42 1 103.039 36.3019 -5.55112e-17
43 1 135.699 60.8884 -5.55112e-17
44 1 107.269 23.2279 -5.55112e-17
45 1 214.661 84.9289 -5.55112e-17
46 1 28.6418 203.116 -5.55112e-17
47 1 88.6855 172.22 -5.55112e-17
48 2 45.8082 84.0884 -5.55112e-17
49 1 76.7294 110.487 -5.55112e-17
50 1 46.2781 197.393 -5.55112e-17
51 1 181.567 34.5144 -5.55112e-17
52 1 203.447 132.777 -5.55112e-17
53 1 157.157 27.4758 -5.55112e-17
54 1 32.5728 128.144 -5.55112e-17
55 1 23.4143 48.4898 -5.55112e-17
56 1 117.471 140.025 -5.55112e-17
57 2 68.1563 214.568 -5.55112e-17
58 1 35.4523 39.9437 -5.55112e-17
59 1 29.5732 151.899 -5.55112e-17
60 2 151.576 147.007 -5.55112e-17
61 2 36.2236 202.566 -5.55112e-17
62 1 16.3556 158.112 -5.55112e-17
63 1 111.79 198.039 -5.55112e-17
64 1 134.176 39.0434 -5.55112e-17
65 1 214.168 114.257 -5.55112e-17
66 1 128.882 134.37 -5.55112e-17
67 1 95.9062 139.739 -5.55112e-17
68 1 66.5415 116.345 -5.55112e-17
69 1 140.479 173.999 -5.55112e-17
70 1 58.9828 110.818 -5.55112e-17
71 1 7.42336 125.698 -5.55112e-17
72 1 171.743 60.6506 -5.55112e-17
73 1 187.689 185.962 -5.55112e-17
74 1 207.579 21.7928 -5.55112e-17
75 2 93.8891 1.48215 -5.55112e-17
76 1 17.79 4.64507 -5.55112e-17
77 1 36.1027 22.0591 -5.55112e-17
78 1 124.455 117.132 -5.55112e-17
79 2 126.095 0.861243 -5.55112e-17
80 1 74.9741 106.118 -5.55112e-17
81 1 110.398 140.809 -5.55112e-17
82 1 53.4776 141.291 -5.55112e-17
83 2 129.581 182.075 -5.55112e-17
84 1 179.929 80.6617 -5.55112e-17
85 1 23.9786 43.5253 -5.55112e-17
86 1 127.849 142.109 -5.55112e-17
87 1 217.385 217.091 -5.55112e-17
88 1 18.7669 34.7567 -5.55112e-17
89 2 44.145 3.34563 -5.55112e-17
90 2 190.236 188.03 -5.55112e-17
91 1 149.916 90.7568 -5.55112e-17
92 2 168.822 21.0042 -5.55112e-17
93 1 141.237 15.4547 -5.55112e-17
94 2 202.337 12.5906 -5.55112e-17
95 1 33.607 194.397 -5.55112e-17
96 1 130.648 95.359 -5.55112e-17
97 1 97.3007 4.83269 -5.55112e-17
98 1 125.552 54.6851 -5.55112e-17
99 1 178.974 21.8983 -5.55112e-17
100 1 176.161 8.92868 -5.55112e-17
101 1 114.4 12.3611 -5.55112e-17
102 1 24.9946 46.1029 -5.55112e-17
103 1 58.8632 80.2111 -5.55112e-17
104 1 68.6979 109.072 -5.55112e-17
105 1 142.333 201.504 -5.55112e-17
106 1 77.7971 102.507 -5.55112e-17
107 2 146.354 101.439 -5.55112e-17
108 1 36.3208 210.301 -5.55112e-17
109 1 54.7429 88.7009 -5.55112e-17
110 1 106.015 65.3631 -5.55112e-17
111 1 60.9101 21.1461 -5.55112e-17
112 1 94.7786 137.117 -5.55112e-17
113 1 102.72 49.2795 -5.55112e-17
114 1 158.931 23.5437 -5.55112e-17
115 1 50.9467 163.085 -5.55112e-17
116 2 213.649 133.795 -5.55112e-17
117 1 199.477 217.332 -5.55112e-17
118 1 164.966 67.9189 -5.55112e-17
119 2 58.1588 98.5588 -5.55112e-17
120 1 53.269 199.461 -5.55112e-17
121 1 152.471 83.6732 -5.55112e-17
122 1 102.943 15.0864 -5.55112e-17
123 1 137.089 76.134 -5.55112e-17
124 1 154.499 202 -5.55112e-17
125 1 141.402 117.579 -5.55112e-17
126 1 114.518 65.2227 -5.55112e-17
127 1 163.912 78.1484 -5.55112e-17
128 1 175.262 136.836 -5.55112e-17
129 1 7.56281 104.193 -5.55112e-17
130 1 83.9156 128.446 -5.55112e-17
131 1 175.344 152.653 -5.55112e-17
132 2 183.095 1.66348 -5.55112e-17
133 1 127.231 79.6111 -5.55112e-17
134 1 33.0657 86.0555 -5.55112e-17
135 1 78.4055 8.58808 -5.55112e-17
136 1 210.479 201.518 -5.55112e-17
137 1 101.944 136.788 -5.55112e-17
138 1 50.7958 212.051 -5.55112e-17
139 1 201.784 105.569 -5.55112e-17
140 2 141.666 186.237 -5.55112e-17
141 1 205.331 96.8252 -5.55112e-17
142 2 212.278 49.2327 -5.55112e-17
143 1 111.585 80.4253 -5.55112e-17
144 2 43.5362 198.795 -5.55112e-17
145 1 171.978 103.334 -5.55112e-17
146 1 99.97 119.997 -5.55112e-17
147 1 154.048 145.743 -5.55112e-17
148 1 6.73858 201.029 -5.55112e-17
149 1 68.0466 21.7998 -5.55112e-17
150 1 53.9765 37.2645 -5.55112e-17
151 1 27.8678 116.44 -5.55112e-17
152 1 63.2537 104.566 -5.55112e-17
153 2 52.4776 5.87476 -5.55112e-17
154 1 149.524 94.6301 -5.55112e-17
155 1 108.087 16.9069 -5.55112e-17
156 2 71.5365 116.307 -5.55112e-17
157 1 207.212 104.66 -5.55112e-17
158 1 29.0367 28.7532 -5.55112e-17
159 1 20.9845 136.847 -5.55112e-17
160 1 14.9428 201.763 -5.55112e-17
161 1 1.91344 7.96347 -5.55112e-17
162 1 127.29 127.497 -5.55112e-17
163 1 17.4812 32.7032 -5.55112e-17
164 1 167.476 52.8493 -5.55112e-17
165 1 125.092 121.644 -5.55112e-17
166 2 159.561 60.8128 -5.55112e-17
167 1 175.671 46.7902 -5.55112e-17
168 1 148.844 169.443 -5.55112e-17
169 1 1.0547 101.825 -5.55112e-17
170 1 94.6383 168.603 -5.55112e-17
171 1 146.819 60.4799 -5.55112e-17
172 1 0.257932 17.5423 -5.55112e-17
173 1 46.0989 142.914 -5.55112e-17
174 1 131.416 62.5676 -5.55112e-17
175 2 137.263 160.785 -5.55112e-17
176 1 109.904 70.1724 -5.55112e-17
177 2 70.9471 56.515 -5.55112e-17
178 1 65.2608 86.5912 -5.55112e-17
179 1 173.075 164.294 -5.55112e-17
180 1 203.613 197.38 -5.55112e-17
181 1 134.666 167.419 -5.55112e-17
182 2 77.1391 20.7773 -5.55112e-17
183 1 76.6752 163.966 -5.55112e-17
184 1 176.342 86.6923 -5.55112e-17
185 2 177.69 19.3343 -5.55112e-17
186 2 208.358 133.942 -5.55112e-17
187 1 93.0856 29.0097 -5.55112e-17
188 1 102.082 170.374 -5.55112e-17
189 1 123.077 174.919 -5.55112e-17
190 2 13.0084 162.803 -5.55112e-17
191 1 77.2286 157.078 -5.55112e-17
192 2 63.3706 109.58 -5.55112e-17
193 2 79.3861 172.266 -5.55112e-17
194 1 33.1622 149.153 -5.55112e-17
195 1 145.173 163.759 -5.55112e-17
196 1 168.207 192.263 -5.55112e-17
197 1 74.7908 69.6269 -5.55112e-17
198 2 9.14961 133.015 -5.55112e-17
199 1 210.639 57.1608 -5.55112e-17
200 1 80.349 6.85977 -5.55112e-17
201 2 71.4305 109.743 -5.55112e-17
202 1 53.0368 210.502 -5.55112e-17
203 1 175.331 81.6398 -5.55112e-17
204 1 188.225 156.68 -5.55112e-17
205 2 191.684 82.8209 -5.55112e-17
206 1 89.2328 132.853 -5.55112e-17
207 1 105.853 29.9342 -5.55112e-17
208 1 33.2387 83.3112 -5.55112e-17
209 1 82.1643 2.65986 -5.55112e-17
210 1 9.51363 67.4697 -5.55112e-17
211 2 146.094 156.53 -5.55112e-17
212 1 120.381 112.421 -5.55112e-17
213 1 134.914 104.112 -5.55112e-17
214 1 74.5109 14.1517 -5.55112e-17
215 1 74.3423 201.418 -5.55112e-17
216 1 193.143 139.274 -5.55112e-17
217 1 126.814 186.858 -5.55112e-17
218 2 27.9045 168.291 -5.55112e-17
219 1 155.481 213.957 -5.55112e-17
220 2 106.447 55.2567 -5.55112e-17
221 1 212.888 56.0119 -5.55112e-17
222 1 142.971 145.94 -5.55112e-17
223 1 52.6699 207.971 -5.55112e-17
224 2 9.81019 188.902 -5.55112e-17
225 1 201.076 142.586 -5.55112e-17
226 1 138.749 190.215 -5.55112e-17
227 2 50.9031 16.9412 -5.55112e-17
228 1 138.922 77.6443 -5.55112e-17
229 1 60.4377 135.247 -5.55112e-17
230 1 158.702 131.39 -5.55112e-17
231 1 148.223 122.898 -5.55112e-17
232 1 215.802 89.8776 -5.55112e-17
233 1 110.038 99.972 -5.55112e-17
234 1 133.648 216.206 -5.55112e-17
235 1 20.3153 144.162 -5.55112e-17
236 1 45.6245 78.0579 -5.55112e-17
237 1 199.334 8.03047 -5.55112e-17
238 1 147.531 127.981 -5.55112e-17
239 2 17.3651 112.639 -5.55112e-17
240 1 99.6423 6.22457 -5.55112e-17
241 2 187.713 16.3993 -5.55112e-17
242 2 198.968 37.095 -5.55112e-17
243 2 114.956 27.4953 -5.55112e-17
244 1 97.6231 7.58152 -5.55112e-17
245 1 85.5282 58.9453 -5.55112e-17
246 1 126.245 119.041 -5.55112e-17
247 1 210.514 98.6589 -5.55112e-17
248 1 94.6253 4.10107 -5.55112e-17
249 1 23.7618 66.3161 -5.55112e-17
250 2 150.42 30.0136 -5.55112e-17
251 1 153.496 212.324 -5.55112e-17
252 1 195.536 64.4694 -5.55112e-17
253 1 94.9117 61.6104 -5.55112e-17
254 2 76.7895 197.253 -5.55112e-17
255 1 212.302 149.019 -5.55112e-17
256 1 84.2771 165.607 -5.55112e-17
257 1 211.715 151.441 -5.55112e-17
258 2 164.677 28.173 -5.55112e-17
259 1 58.3493 165.594 -5.55112e-17
260 1 127.356 11.064 -5.55112e-17
261 1 185.353 14.3208 -5.55112e-17
262 1 53.0496 52.0314 -5.55112e-17
263 1 12.967 213.448 -5.55112e-17
264 1 173.171 43.1226 -5.55112e-17
265 1 166.728 23.0477 -5.55112e-17
266 1 155.695 9.96219 -5.55112e-17
267 1 2.91903 64.4401 -5.55112e-17
268 1 21.3423 35.4085 -5.55112e-17
269 1 126.05 94.5759 -5.55112e-17
270 1 141.557 106.36 -5.55112e-17
271 1 13.6061 92.6485 -5.55112e-17
272 1 158.772 202.273 -5.55112e-17
273 1 40.3244 168.736 -5.55112e-17
274 2 113.27 88.0003 -5.55112e-17
275 1 64.2996 5.16894 -5.55112e-17
276 2 53.7639 31.9025 -5.55112e-17
277 2 167.002 122.247 -5.55112e-17
278 1 38.6114 100.687 -5.55112e-17
279 2 109.382 204.941 -5.55112e-17
280 1 60.0166 31.8269 -5.55112e-17
281 1 147.443 26.0309 -5.55112e-17
282 1 164.971 8.32158 -5.55112e-17
283 1 113.235 141.642 -5.55112e-17
284 1 136.173 165.594 -5.55112e-17
285 1 36.1513 12.4933 -5.55112e-17
286 2 34.0973 214.859 -5.55112e-17
287 1 82.43 135.369 -5.55112e-17
288 1 21.4996 57.56 -5.55112e-17
289 1 72.7093 53.9573 -5.55112e-17
290 1 150.776 193.705 -5.55112e-17
291 1 158.221 144.868 -5.55112e-17
292 2 19.4388 181.224 -5.55112e-17
293 2 65.7167 194.389 -5.55112e-17
294 1 112.502 40.0129 -5.55112e-17
295 1 125.122 47.7549 -5.55112e-17
296 1 135.228 41.54 -5.55112e-17
297 1 118.687 145.175 -5.55112e-17
298 1 104.867 198.438 -5.55112e-17
299 1 160.404 106.243 -5.55112e-17
300 2 62.1298 94.6675 -5.55112e-17
301 1 58.8853 43.4272 -5.55112e-17
302 1 126.884 193.113 -5.55112e-17
303 2 198.787 60.2256 -5.55112e-17
304 2 144.585 129.274 -5.55112e-17
305 1 85.8859 99.455 -5.55112e-17
306 1 51.5271 73.3211 -5.55112e-17
307 1 34.2223 121.126 -5.55112e-17
308 1 161.926 59.2728 -5.55112e-17
309 2 72.8482 184.288 -5.55112e-17
310 1 196.661 213.57 -5.55112e-17
311 1 79.4918 33.4479 -5.55112e-17
312 1 191.906 148.111 -5.55112e-17
313 2 147.48 65.9745 -5.55112e-17
314 1 51.863 134.952 -5.55112e-17
315 1 111.088 150.67 -5.55112e-17
316 1 72.922 1.03836 -5.55112e-17
317 1 14.2914 99.5689 -5.55112e-17
318 1 100.281 215.147 -5.55112e-17
319 1 50.9052 33.3215 -5.55112e-17
320 1 144.496 99.4159 -5.55112e-17
321 1 88.5671 203.804 -5.55112e-17
322 1 138.882 140.651 -5.55112e-17
323 1 188.073 108.199 -5.55112e-17
324 1 80.8726 26.8334 -5.55112e-17
325 1 162.62 139.691 -5.55112e-17
326 1 84.7798 151.633 -5.55112e-17
327 2 149.571 186.081 -5.55112e-17
328 1 168.27 40.3152 -5.55112e-17
329 2 47.1909 115.081 -5.55112e-17
330 1 22.7189 104.045 -5.55112e-17
331 1 174.504 176.179 -5.55112e-17
332 2 112.467 104.34 -5.55112e-17
333 1 44.3413 17.5415 -5.55112e-17
334 1 139.356 168.783 -5.55112e-17
335 1 13.7333 204.028 -5.55112e-17
336 1 212.273 106.572 -5.55112e-17
337 1 102.848 182.144 -5.55112e-17
338 1 159.712 57.894 -5.55112e-17
339 1 109.359 216.966 -5.55112e-17
340 1 152.923 141.419 -5.55112e-17
341 1 160.466 158.477 -5.55112e-17
342 1 128.522 144.568 -5.55112e-17
343 1 127.755 29.3107 -5.55112e-17
344 1 63.2939 181.742 -5.55112e-17
345 1 60.563 109.08 -5.55112e-17
346 1 8.95531 127.656 -5.55112e-17
347 1 92.0649 92.4234 -5.55112e-17
348 1 163.661 179.482 -5.55112e-17
349 1 193.492 75.57 -5.55112e-17
350 2 90.0786 40.1143 -5.55112e-17
351 1 154.676 65.8199 -5.55112e-17
352 1 60.7827 182.87 -5.55112e-17
353 1 38.9428 166.205 -5.55112e-17
354 1 167.412 161.872 -5.55112e-17
355 1 58.2872 156.373 -5.55112e-17
356 1 23.8338 36.7389 -5.55112e-17
357 1 62.6715 158.572 -5.55112e-17
358 1 171.524 181.313 -5.55112e-17
359 1 157.682 158.833 -5.55112e-17
360 1 75.1346 53.5451 -5.55112e-17
361 1 62.6045 167.706 -5.55112e-17
362 1 169.079 201.11 -5.55112e-17
363 1 163.625 190.589 -5.55112e-17
364 2 116.392 92.5497 -5.55112e-17
365 1 178.608 90.5939 -5.55112e-17
366 1 117.078 161.1 -5.55112e-17
367 1 174.283 6.85792 -5.55112e-17
368 1 197.228 192.32 -5.55112e-17
369 2 115.534 188.145 -5.55112e-17
370 1 15.7027 205.915 -5.55112e-17
371 1 53.703 136.689 -5.55112e-17
372 2 0.295034 94.1069 -5.55112e-17
373 2 213.096 8.10601 -5.55112e-17
374 1 151.88 88.4104 -5.55112e-17
375 1 37.2902 111.506 -5.55112e-17
376 1 13.1792 151.877 -5.55112e-17
377 1 29.1469 213.082 -5.55112e-17
378 1 74.6379 129.368 -5.55112e-17
379 1 42.9934 60.8104 -5.55112e-17
380 1 177.554 151.191 -5.55112e-17
381 1 13.6542 5.7156 -5.55112e-17
382 1 54.6885 66.7439 -5.55112e-17
383 1 169.492 67.2977 -5.55112e-17
384 1 21.9689 13.8368 -5.55112e-17
385 1 191.418 77.5259 -5.55112e-17
386 2 82.6384 43.9593 -5.55112e-17
387 1 144.705 19.4086 -5.55112e-17
388 1 56.5088 44.1319 -5.55112e-17
389 1 206.621 159.127 -5.55112e-17
390 2 207.298 179.602 -5.55112e-17
391 2 36.3189 37.216 -5.55112e-17
392 1 41.7142 218.061 -5.55112e-17
393 1 0.616415 33.5759 -5.55112e-17
394 1 102.406 101.23 -5.55112e-17
395 1 16.275 27.4608 -5.55112e-17
396 1 202.526 154.03 -5.55112e-17
397 1 100.746 16.6427 -5.55112e-17
398 1 11.4201 191.329 -5.55112e-17
399 1 20.1445 62.2842 -5.55112e-17
400 1 103.256 179.725 -5.55112e-17
401 1 87.4255 176.328 -5.55112e-17
402 2 190.853 179.277 -5.55112e-17
403 1 214.732 54.2711 -5.55112e-17
404 1 36.6536 71.405 -5.55112e-17
405 1 204.598 29.2968 -5.55112e-17
406 1 201.61 68.5437 -5.55112e-17
407 2 18.8815 64.6711 -5.55112e-17
408 1 33.994 35.3585 -5.55112e-17
409 1 169.033 129.397 -5.55112e-17
410 1 20.2548 155.953 -5.55112e-17
411 1 151.587 160.434 -5.55112e-17
412 1 114.556 215.133 -5.55112e-17
413 1 63.0498 156.004 -5.55112e-17
414 1 38.3437 13.4918 -5.55112e-17
415 1 207.621 148.38 -5.55112e-17
416 1 72.1452 200.004 -5.55112e-17
417 1 141.436 93.7399 -5.55112e-17
418 2 184.395 7.29109 -5.55112e-17
419 1 108.365 149.734 -5.55112e-17
420 2 136.841 108.854 -5.55112e-17
421 1 87.9103 103.815 -5.55112e-17
422 1 176.515 22.4108 -5.55112e-17
423 2 158.749 40.8926 -5.55112e-17
424 1 156.891 149.087 -5.55112e-17
425 1 128.925 166.816 -5.55112e-17
426 1 133.246 112.534 -5.55112e-17
427 1 45.7331 80.9056 -5.55112e-17
428 1 71.337 191.673 -5.55112e-17
429 1 194.412 83.5832 -5.55112e-17
430 1 215.32 60.2213 -5.55112e-17
431 1 120.205 206.881 -5.55112e-17
432 1 161.887 54.005 -5.55112e-17
433 1 105.11 153.862 -5.55112e-17
434 1 71.642 30.3769 -5.55112e-17
435 1 177.909 162.215 -5.55112e-17
436 1 41.8227 37.1309 -5.55112e-17
437 1 175.375 109.714 -5.55112e-17
438 2 109.854 21.6295 -5.55112e-17
439 1 67.5903 208.905 -5.55112e-17
440 1 5.78299 161.78 -5.55112e-17
441 1 192.589 131.615 -5.55112e-17
442 1 50.413 13.504 -5.55112e-17
443 1 158.193 104.931 -5.55112e-17
444 1 217.619 101.368 -5.55112e-17
445 1 137.849 8.96542 -5.55112e-17
446 1 131.733 79.0733 -5.55112e-17
447 1 39.0429 144.857 -5.55112e-17
448 1 75.9266 7.50105 -5.55112e-17
449 1 132.01 120.426 -5.55112e-17
450 1 139.501 187.764 -5.55112e-17
451 1 171.211 47.3326 -5.55112e-17
452 1 133.391 144.611 -5.55112e-17
453 1 178.754 182.641 -5.55112e-17
454 1 159.944 211.911 -5.55112e-17
455 1 100.416 72.1475 -5.55112e-17
456 1 167.86 27.068 -5.55112e-17
457 1 97.9126 113.253 -5.55112e-17
458 1 199.162 0.99975 -5.55112e-17
459 1 81.5823 69.3572 -5.55112e-17
460 1 48.6889 101.887 -5.55112e-17
461 1 188.385 178.113 -5.55112e-17
462 1 181.547 116.344 -5.55112e-17
463 1 126.988 33.7077 -5.55112e-17
464 1 154.87 195.224 -5.55112e-17
465 1 121.167 159.943 -5.55112e-17
466 1 24.6706 213.576 -5.55112e-17
467 1 18.3598 81.3495 -5.55112e-17
468 1 161.237 218.937 -5.55112e-17
469 1 68.9796 77.1441 -5.55112e-17
470 1 78.1707 37.8633 -5.55112e-17
471 1 128.655 174.436 -5.55112e-17
472 1 48.7059 84.7706 -5.55112e-17
473 1 27.1866 105.198 -5.55112e-17
474 1 88.0544 101.161 -5.55112e-17
475 1 184.804 163.715 -5.55112e-17
476 2 192.084 12.3205 -5.55112e-17
477 1 52.8928 86.7945 -5.55112e-17
478 1 58.5318 125.441 -5.55112e-17
479 1 201.674 80.7424 -5.55112e-17
480 1 85.1503 23.6665 -5.55112e-17
481 1 15.4588 94.8707 -5.55112e-17
482 1 99.2104 159.949 -5.55112e-17
483 1 141.805 160.218 -5.55112e-17
484 2 87.8622 45.2175 -5.55112e-17
485 1 33.3889 100.175 -5.55112e-17
486 1 81.6387 17.3622 -5.55112e-17
487 1 100.864 196.332 -5.55112e-17
488 1 5.49089 121.637 -5.55112e-17
489 1 210.882 134.939 -5.55112e-17
490 1 205.342 84.1017 -5.55112e-17
491 1 197.3 121.598 -5.55112e-17
492 1 2.28807 128.972 -5.55112e-17
493 1 194.201 212.813 -5.55112e-17
494 1 211.646 38.4723 -5.55112e-17
495 1 198.748 89.3306 -5.55112e-17
496 2 43.943 189.024 -5.55112e-17
497 1 39.2872 216.552 -5.55112e-17
498 1 104.858 121.037 -5.55112e-17
499 2 136.572 216.741 -5.55112e-17
500 1 25.6451 29.8808 -5.55112e-17
501 2 112.757 217.008 -5.55112e-17
502 2 123.427 143.268 -5.55112e-17
503 1 147.148 183.923 -5.55112e-17
504 1 112.668 148.512 -5.55112e-17
505 1 118.524 18.8019 -5.55112e-17
506 1 24.3448 119.134 -5.55112e-17
507 1 14.0575 130.177 -5.55112e-17
508 1 197.338 218.336 -5.55112e-17
509 2 29.3435 73.5729 -5.55112e-17
510 2 145.934 133.274 -5.55112e-17
511 1 196.436 35.698 -5.55112e-17
512 2 210.14 60.2996 -5.55112e-17
513 1 56.1149 126.945 -5.55112e-17
514 1 48.6795 18.7055 -5.55112e-17
515 1 204.596 25.2662 -5.55112e-17
516 1 184.394 205.676 -5.55112e-17
517 1 111.82 116.997 -5.55112e-17
518 2 103.739 20.5963 -5.55112e-17
519 1 11.9503 53.5705 -5.55112e-17
520 2 213.069 23.385 -5.55112e-17
521 1 88.4865 110.686 -5.55112e-17
522 1 30.6936 30.6036 -5.55112e-17
523 1 24.8356 68.4858 -5.55112e-17
524 1 100.071 75.2611 -5.55112e-17
525 1 174.738 121.302 -5.55112e-17
526 1 191.079 65.2757 -5.55112e-17
527 1 75.5925 5.04842 -5.55112e-17
528 1 169.643 28.7522 -5.55112e-17
529 1 56.8432 158.402 -5.55112e-17
530 1 100.484 32.1307 -5.55112e-17
531 1 66.271 197.199 -5.55112e-17
532 1 206.731 187.821 -5.55112e-17
533 1 133.845 150.787 -5.55112e-17
534 1 97.3011 144.611 -5.55112e-17
535 1 14.6083 105.026 -5.55112e-17
536 1 203.211 117.87 -5.55112e-17
537 1 201.175 166.73 -5.55112e-17
538 1 168.964 80.9959 -5.55112e-17
539 1 89.1626 211.58 -5.55112e-17
540 1 103.565 88.5631 -5.55112e-17
541 1 43.1764 57.7434 -5.55112e-17
542 1 67.536 211.55 -5.55112e-17
543 1 146.945 151.307 -5.55112e-17
544 1 128.56 200.766 -5.55112e-17
545 1 7.73597 149.572 -5.55112e-17
546 1 179.802 41.3353 -5.55112e-17
547 1 82.1993 172.048 -5.55112e-17
548 1 99.9749 8.77152 -5.55112e-17
549 1 52.3403 75.9788 -5.55112e-17
550 2 162.263 121.742 -5.55112e-17
551 2 134.222 157.898 -5.55112e-17
552 2 93.2262 180.591 -5.55112e-17
553 1 122.819 42.2543 -5.55112e-17
554 1 73.467 101.518 -5.55112e-17
555 2 65.7769 123.869 -5.55112e-17
556 1 148.786 22.2566 -5.55112e-17
557 1 76.3767 12.6391 -5.55112e-17
558 1 147.801 125.546 -5.55112e-17
559 1 187.969 47.5528 -5.55112e-17
560 1 132.057 51.085 -5.55112e-17
561 1 146.411 168.804 -5.55112e-17
562 1 195.354 144.505 -5.55112e-17
563 2 167.667 114.234 -5.55112e-17
564 1 42.0151 68.0558 -5.55112e-17
565 1 60.1622 10.323 -5.55112e-17
566 1 75.1162 34.4996 -5.55112e-17
567 1 150.338 111.3 -5.55112e-17
568 1 22.8238 117.115 -5.55112e-17
569 1 114.168 185.46 -5.55112e-17
570 1 124.276 123.961 -5.55112e-17
571 1 175.836 203.841 -5.55112e-17
572 1 61.3842 111.772 -5.55112e-17
573 1 177.517 76.4374 -5.55112e-17
574 1 41.3911 129.977 -5.55112e-17
575 1 20.8157 76.1253 -5.55112e-17
576 1 195.61 98.5556 -5.55112e-17
577 1 203.089 33.621 -5.55112e-17
578 1 122.839 196.944 -5.55112e-17
579 1 12.4087 165.612 -5.55112e-17
580 1 102.902 139.085 -5.55112e-17
581 1 141.084 154.257 -5.55112e-17
582 1 76.1525 78.9232 -5.55112e-17
583 1 161.989 186.072 -5.55112e-17
584 2 31.5437 120.363 -5.55112e-17
585 1 48.5609 198.738 -5.55112e-17
586 1 137.453 170.723 -5.55112e-17
587 1 99.3796 104.703 -5.55112e-17
588 1 17.0466 1.91816 -5.55112e-17
589 1 103.335 17.4528 -5.55112e-17
590 1 70.4173 0.289421 -5.55112e-17
591 1 215.335 162.546 -5.55112e-17
592 1 55.6652 155.872 -5.55112e-17
593 1 209.473 181.368 -5.55112e-17
594 1 181.112 181.672 -5.55112e-17
595 1 82.6889 39.324 -5.55112e-17
596 1 65.9478 36.0328 -5.55112e-17
597 2 180.469 204.752 -5.55112e-17
598 1 166.809 211.693 -5.55112e-17
599 1 207.654 171.328 -5.55112e-17
600 1 104.551 10.5833 -5.55112e-17
601 1 11.1846 134.861 -5.55112e-17
602 1 98.0224 31.1986 -5.55112e-17
603 1 208.222 202.971 -5.55112e-17
604 1 120.593 1.51894 -5.55112e-17
605 2 85.6947 77.4727 -5.55112e-17
606 1 102.796 201.73 -5.55112e-17
607 2 171.378 147.023 -5.55112e-17
608 1 95.4166 76.9858 -5.55112e-17
609 1 16.0665 6.53201 -5.55112e-17
610 1 214.331 150.664 -5.55112e-17
611 1 201.91 190.329 -5.55112e-17
612 1 218.558 38.185 -5.55112e-17
613 1 58.6854 150.614 -5.55112e-17
614 2 127.585 179.421 -5.55112e-17
615 1 105.71 18.5043 -5.55112e-17
616 1 201.886 130.759 -5.55112e-17
617 1 127.093 198.379 -5.55112e-17
618 1 201.406 212.48 -5.55112e-17
619 1 179.171 78.2426 -5.55112e-17
620 1 140.756 139.213 -5.55112e-17
621 1 196.81 93.7726 -5.55112e-17
622 1 95.5346 213.72 -5.55112e-17
623 1 0.0634108 12.5101 -5.55112e-17
624 1 24.2872 208.979 -5.55112e-17
625 1 204.744 155.146 -5.55112e-17
626 1 93.9642 191.374 -5.55112e-17
627 1 64.4637 73.5843 -5.55112e-17
628 1 34.1191 27.8887 -5.55112e-17
629 1 10.2193 95.687 -5.55112e-17
630 2 151.665 22.4816 -5.55112e-17
631 1 16.0632 88.2112 -5.55112e-17
632 1 49.6106 91.6628 -5.55112e-17
633 1 38.8429 211.231 -5.55112e-17
634 1 1.20661 147.553 -5.55112e-17
635 1 154.847 150.706 -5.55112e-17
636 1 208.18 57.8267 -5.55112e-17
637 1 201.55 58.4834 -5.55112e-17
638 1 173.126 76.9254 -5.55112e-17
639 2 203.936 78.8724 -5.55112e-17
640 1 143.203 152.466 -5.55112e-17
641 1 192.726 85.5081 -5.55112e-17
642 1 31.8029 90.6528 -5.55112e-17
643 2 182.399 42.8881 -5.55112e-17
644 1 68.4626 154.739 -5.55112e-17
645 1 106.784 196.547 -5.55112e-17
646 2 211.453 141.705 -5.55112e-17
647 1 10.6771 185.587 -5.55112e-17
648 1 132.725 103.01 -5.55112e-17
649 2 22.318 148.617 -5.55112e-17
650 1 204.606 186.422 -5.55112e-17
651 1 218.421 113.376 -5.55112e-17
652 1 154.131 43.9705 -5.55112e-17
653 1 114.189 175.509 -5.55112e-17
654 1 23.1666 21.2734 -5.55112e-17
655 2 183.408 101.219 -5.55112e-17
656 1 27.1265 126.35 -5.55112e-17
657 2 79.2392 207.278 -5.55112e-17
658 1 54.1154 43.907 -5.55112e-17
659 2 156.425 192.493 -5.55112e-17
660 1 103.131 54.8693 -5.55112e-17
661 1 42.5884 116.072 -5.55112e-17
662 1 81.8101 130.222 -5.55112e-17
663 1 32.416 25.6308 -5.55112e-17
664 1 147.067 18.6117 -5.55112e-17
665 1 140.345 75.524 -5.55112e-17
666 2 47.8108 180.5 -5.55112e-17
667 1 93.0616 99.5538 -5.55112e-17
668 2 102.128 93.2725 -5.55112e-17
669 1 36.3169 17.5105 -5.55112e-17
670 1 96.2186 173.524 -5.55112e-17
671 2 53.9748 175.71 -5.55112e-17
672 1 186.032 11.9718 -5.55112e-17
673 1 63.2611 19.7672 -5.55112e-17
674 1 2.34363 31.7171 -5.55112e-17
675 1 128.467 23.6201 -5.55112e-17
676 1 169.453 124.077 -5.55112e-17
677 1 131.308 174.648 -5.55112e-17
678 1 137.909 30.6287 -5.55112e-17
679 2 152.826 33.2472 -5.55112e-17
680 1 203.047 41.5518 -5.55112e-17
681 2 129.18 118.984 -5.55112e-17
682 1 0.450474 48.1424 -5.55112e-17
683 1 68.8533 4.37319 -5.55112e-17
684 1 119.645 154.936 -5.55112e-17
685 1 153.014 38.7861 -5.55112e-17
686 1 28.1005 193.532 -5.55112e-17
687 1 118.352 192.358 -5.55112e-17
688 1 162.681 110.307 -5.55112e-17
689 2 58.6217 46.2315 -5.55112e-17
690 1 69.9896 20.0299 -5.55112e-17
691 1 89.7378 66.1635 -5.55112e-17
692 1 130.875 7.98381 -5.55112e-17
693 1 48.5094 142.721 -5.55112e-17
694 1 76.1686 125.377 -5.55112e-17
695 1 146.559 38.3076 -5.55112e-17
696 1 146.798 81.5914 -5.55112e-17
697 1 139.459 201.624 -5.55112e-17
698 1 116.957 65.7206 -5.55112e-17
699 1 180.439 192.051 -5.55112e-17
700 1 205.974 209.577 -5.55112e-17
701 1 53.9216 16.4927 -5.55112e-17
702 1 113.483 128.648 -5.55112e-17
703 2 187.867 144.374 -5.55112e-17
704 1 29.549 218.329 -5.55112e-17
705 2 68.7421 111.934 -5.55112e-17
706 1 165.41 177.397 -5.55112e-17
707 1 114.398 24.7891 -5.55112e-17
708 1 84.2275 209.012 -5.55112e-17
709 1 147.149 196.336 -5.55112e-17
710 1 192.104 191.954 -5.55112e-17
711 1 111.377 92.6746 -5.55112e-17
712 1 192.294 208.013 -5.55112e-17
713 1 13.6749 136.047 -5.55112e-17
714 1 135.916 13.0578 -5.55112e-17
715 1 55.9314 199.338 -5.55112e-17
716 1 42.6064 123.212 -5.55112e-17
717 1 51.2674 106.912 -5.55112e-17
718 1 130.939 185.047 -5.55112e-17
719 2 119.982 78.4984 -5.55112e-17
720 1 98.9352 65.1117 -5.55112e-17
721 1 95.4364 98.661 -5.55112e-17
722 1 133.884 62.9884 -5.55112e-17
723 2 48.5395 45.4387 -5.55112e-17
724 1 15.7393 49.7789 -5.55112e-17
725 1 28.391 112.063 -5.55112e-17
726 1 190.145 46.1865 -5.55112e-17
727 1 148.339 205.423 -5.55112e-17
728 2 20.0612 88.7244 -5.55112e-17
729 1 133.566 165.191 -5.55112e-17
730 1 174.296 199.397 -5.55112e-17
731 1 49.1501 189.716 -5.55112e-17
732 1 218.903 9.48613 -5.55112e-17
733 1 205.691 34.3276 -5.55112e-17
734 1 4.34708 29.9581 -5.55112e-17
735 1 40.5003 23.9215 -5.55112e-17
736 2 190.383 74.7549 -5.55112e-17
737 1 81.4886 86.2629 -5.55112e-17
738 1 16.0958 167.774 -5.55112e-17
739 1 105.738 156.407 -5.55112e-17
740 1 59.7588 116.078 -5.55112e-17
741 2 188.792 78.6943 -5.55112e-17
742 1 74.9022 43.7519 -5.55112e-17
743 1 203.462 66.8266 -5.55112e-17
744 2 210.516 172.66 -5.55112e-17
745 1 131.151 31.807 -5.55112e-17
746 1 14.1361 29.4498 -5.55112e-17
747 2 204.987 22.3592 -5.55112e-17
748 1 182.68 193.299 -5.55112e-17
749 1 196.256 210.803 -5.55112e-17
750 1 213.049 163.502 -5.55112e-17
751 1 59.8884 58.1003 -5.55112e-17
752 1 177.608 106.172 -5.55112e-17
753 1 99.2786 151.016 -5.55112e-17
754 1 15.2878 215.497 -5.55112e-17
755 1 83.2185 194.753 -5.55112e-17
756 2 103.771 195.634 -5.55112e-17
757 1 27.2677 18.1063 -5.55112e-17
758 1 134.275 148.454 -5.55112e-17
759 1 72.8811 107.211 -5.55112e-17
760 1 97.4807 40.8443 -5.55112e-17
761 1 57.6472 160.988 -5.55112e-17
762 1 43.2814 23.1808 -5.55112e-17
763 1 114.106 99.5647 -5.55112e-17
764 2 177.676 148.227 -5.55112e-17
765 1 94.254 64.0063 -5.55112e-17
766 1 114.638 35.3672 -5.55112e-17
767 1 97.2241 78.7288 -5.55112e-17
768 1 9.64741 3.90796 -5.55112e-17
769 1 108.291 75.9589 -5.55112e-17
770 2 113.504 109.37 -5.55112e-17
771 1 143.333 179.064 -5.55112e-17
772 1 102.127 28.2821 -5.55112e-17
773 1 109.064 167.498 -5.55112e-17
774 1 111.371 123.731 -5.55112e-17
775 1 69.0597 6.91778 -5.55112e-17
776 1 38.0791 10.5778 -5.55112e-17
777 1 107.838 181.956 -5.55112e-17
778 1 22.9881 18.8473 -5.55112e-17
779 1 192.177 44.3082 -5.55112e-17
780 1 2.83066 168.632 -5.55112e-17
781 1 127.019 99.6141 -5.55112e-17
782 1 176.002 49.7287 -5.55112e-17
783 1 98.3184 15.5782 -5.55112e-17
784 2 194.775 159.375 -5.55112e-17
785 1 110.547 165.623 -5.55112e-17
786 1 119.088 177.239 -5.55112e-17
787 1 185.59 75.0851 -5.55112e-17
788 1 177.809 45.2949 -5.55112e-17
789 2 143.076 109.095 -5.55112e-17
790 1 109.979 28.1784 -5.55112e-17
791 2 14.2961 122.167 -5.55112e-17
792 2 216.477 13.6597 -5.55112e-17
793 2 116.011 68.5845 -5.55112e-17
794 1 56.1345 188.5 -5.55112e-17
795 1 132.915 53.5876 -5.55112e-17
796 1 130.646 21.9149 -5.55112e-17
797 1 197.745 155.605 -5.55112e-17
798 2 195.914 203.589 -5.55112e-17
799 2 208.441 65.3342 -5.55112e-17
800 2 55.6155 217.554 -5.55112e-17
801 1 102.948 132.298 -5.55112e-17
802 1 124.945 75.4742 -5.55112e-17
803 1 182.241 68.546 -5.55112e-17
804 2 122.607 205.116 -5.55112e-17
805 1 44.7509 106.007 -5.55112e-17
806 1 11.6893 117.481 -5.55112e-17
807 2 100.242 99.3968 -5.55112e-17
808 1 14.4034 117.106 -5.55112e-17
809 2 57.6498 134.015 -5.55112e-17
810 1 129.794 198.147 -5.55112e-17
811 1 32.9788 5.51251 -5.55112e-17
812 1 132.072 34.2437 -5.55112e-17
813 2 107.685 110.59 -5.55112e-17
814 1 147.175 71.9542 -5.55112e-17
815 1 88.8303 164.371 -5.55112e-17
816 1 200.957 10.096 -5.55112e-17
817 1 108.328 214.517 -5.55112e-17
818 1 57.3018 101.373 -5.55112e-17
819 1 8.91835 136.101 -5.55112e-17
820 1 45.5818 119.652 -5.55112e-17
821 1 94.4728 151.429 -5.55112e-17
822 2 41.2552 135.564 -5.55112e-17
823 2 139.426 91.655 -5.55112e-17
824 1 34.7226 107.434 -5.55112e-17
825 1 65.2582 15.3518 -5.55112e-17
826 1 192.32 7.26339 -5.55112e-17
827 1 192.594 107.713 -5.55112e-17
828 1 141.859 123.271 -5.55112e-17
829 1 127.014 211.253 -5.55112e-17
830 1 81.5207 127.788 -5.55112e-17
831 1 217.846 43.2063 -5.55112e-17
832 1 93.3655 87.3235 -5.55112e-17
833 1 62.2825 84.088 -5.55112e-17
834 1 106.784 9.07258 -5.55112e-17
835 1 56.6196 1.31786 -5.55112e-17
836 1 11.3662 50.6999 -5.55112e-17
837 1 4.54657 71.8818 -5.55112e-17
838 1 97.57 178.633 -5.55112e-17
839 2 198.513 3.80237 -5.55112e-17
840 1 6.41627 203.366 -5.55112e-17
841 2 62.8935 185.014 -5.55112e-17
842 1 94.5808 91.4263 -5.55112e-17
843 2 159.108 183.103 -5.55112e-17
844 1 29.0653 155.987 -5.55112e-17
845 1 70.7851 189.212 -5.55112e-17
846 1 158.772 190.607 -5.55112e-17
847 1 42.1746 140.559 -5.55112e-17
848 1 187.97 117.775 -5.55112e-17
849 1 189.207 167 -5.55112e-17
850 1 38.8213 129.848 -5.55112e-17
851 1 92.9652 41.2778 -5.55112e-17
852 1 12.4652 208.891 -5.55112e-17
853 1 31.7798 138.956 -5.55112e-17
854 1 171.401 84.6875 -5.55112e-17
855 1 126.293 19.7226 -5.55112e-17